 vasp.6.4.1 05Apr23 (build Apr 16 2023 17:31:45) complex                         
 executed on             LinuxGNU date 2024.07.03  17:30:39
 running  512 mpi-ranks, with    1 threads/rank, on    4 nodes
 distrk:  each k-point on  512 cores,    1 groups
 distr:  one band on NCORE=   4 cores,  128 groups


--------------------------------------------------------------------------------------------------------


 INCAR:
   ALGO = Normal
   EDIFF = 0.1E-05
   EDIFFG = -0.05
   ENCUT = 300
   GGA = PS
   IBRION = 2
   ISIF = 3
   ISMEAR = 0
   ISPIN = 2
   LASPH = True
   LCHARG = False
   LHFCALC = False
   LMAXMIX = 4
   LORBIT = 11
   LREAL = Auto
   LVHAR = True
   LWAVE = False
   NCORE = 4
   NEDOS = 2000
   NELM = 40
   NSW = 300
   PREC = Accurate

 POTCAR:    PAW_PBE Te 08Apr2002                  
 -----------------------------------------------------------------------------
|                                                                             |
|           W    W    AA    RRRRR   N    N  II  N    N   GGGG   !!!           |
|           W    W   A  A   R    R  NN   N  II  NN   N  G    G  !!!           |
|           W    W  A    A  R    R  N N  N  II  N N  N  G       !!!           |
|           W WW W  AAAAAA  RRRRR   N  N N  II  N  N N  G  GGG   !            |
|           WW  WW  A    A  R   R   N   NN  II  N   NN  G    G                |
|           W    W  A    A  R    R  N    N  II  N    N   GGGG   !!!           |
|                                                                             |
|     You use a magnetic or noncollinear calculation, but did not specify     |
|     the initial magnetic moment with the MAGMOM tag. Note that a            |
|     default of 1 will be used for all atoms. This ferromagnetic setup       |
|     may break the symmetry of the crystal, in particular it may rule        |
|     out finding an antiferromagnetic solution. Thence, we recommend         |
|     setting the initial magnetic moment manually or verifying carefully     |
|     that this magnetic setup is desired.                                    |
|                                                                             |
 -----------------------------------------------------------------------------

 POTCAR:    PAW_PBE Te 08Apr2002                  
   VRHFIN =Te: s2p4                                                                                 
   LEXCH  = PE                                                                                      
   EATOM  =   223.2721 eV,   16.4100 Ry                                                             
                                                                                                    
   TITEL  = PAW_PBE Te 08Apr2002                                                                    
   LULTRA =        F    use ultrasoft PP ?                                                          
   IUNSCR =        1    unscreen: 0-lin 1-nonlin 2-no                                               
   RPACOR =    2.200    partial core radius                                                         
   POMASS =  127.600; ZVAL   =    6.000    mass and valenz                                          
   RCORE  =    2.300    outmost cutoff radius                                                       
   RWIGS  =    2.900; RWIGS  =    1.535    wigner-seitz radius (au A)                               
   ENMAX  =  174.982; ENMIN  =  131.236 eV                                                          
   ICORE  =        3    local potential                                                             
   LCOR   =        T    correct aug charges                                                         
   LPAW   =        T    paw PP                                                                      
   EAUG   =  368.792                                                                                
   DEXC   =    0.000                                                                                
   RMAX   =    2.345    core radius for proj-oper                                                   
   RAUG   =    1.300    factor for augmentation sphere                                              
   RDEP   =    2.397    radius for radial grids                                                     
   RDEPT  =    2.174    core radius for aug-charge                                                  
                                                                                                    
   Atomic configuration                                                                             
   13 entries                                                                                       
     n  l   j            E        occ.                                                              
     1  0  0.50    -31621.2075   2.0000                                                             
     2  0  0.50     -4848.7941   2.0000                                                             
     2  1  1.50     -4352.1960   6.0000                                                             
     3  0  0.50      -964.9612   2.0000                                                             
     3  1  1.50      -803.6179   6.0000                                                             
     3  2  2.50      -559.8710  10.0000                                                             
     4  0  0.50      -164.3522   2.0000                                                             
     4  1  1.50      -114.3756   6.0000                                                             
     4  2  2.50       -41.6483  10.0000                                                             
     5  0  0.50       -15.1072   2.0000                                                             
     5  1  0.50        -5.9526   4.0000                                                             
     5  2  1.50        -5.4423   0.0000                                                             
     4  3  2.50        -5.4423   0.0000                                                             
   Description                                                                                      
     l       E           TYP  RCUT    TYP  RCUT                                                     
     0    -15.1072389     23  2.300                                                                 
     0    -16.4678215     23  2.300                                                                 
     1     -5.9526306     23  2.300                                                                 
     1     -2.4873968     23  2.300                                                                 
     2     -5.4423304     23  2.300                                                                 
     3     -1.3605826     23  2.300                                                                 
  local pseudopotential read in
  partial core-charges read in
  partial kinetic energy density read in
  atomic valenz-charges read in
  non local Contribution for L=           0  read in
    real space projection operators read in
  non local Contribution for L=           0  read in
    real space projection operators read in
  non local Contribution for L=           1  read in
    real space projection operators read in
  non local Contribution for L=           1  read in
    real space projection operators read in
  non local Contribution for L=           2  read in
    real space projection operators read in
    PAW grid and wavefunctions read in

   number of l-projection  operators is LMAX  =           5
   number of lm-projection operators is LMMAX =          13

 -----------------------------------------------------------------------------
|                                                                             |
|               ----> ADVICE to this user running VASP <----                  |
|                                                                             |
|     You have a (more or less) 'small supercell' and for smaller cells       |
|     it is recommended to use the reciprocal-space projection scheme!        |
|     The real-space optimization is not efficient for small cells and it     |
|     is also less accurate ...                                               |
|     Therefore, set LREAL=.FALSE. in the INCAR file.                         |
|                                                                             |
 -----------------------------------------------------------------------------

 Optimization of the real space projectors (new method)

 maximal supplied QI-value         = 16.25
 optimisation between [QCUT,QGAM] = [  8.78, 17.71] = [ 21.57, 87.87] Ry 
 Optimized for a Real-space Cutoff    1.64 Angstroem

   l    n(q)    QCUT    max X(q) W(low)/X(q) W(high)/X(q)  e(spline) 
   0      9     8.776   224.858    0.99E-04    0.46E-04    0.12E-06
   0      9     8.776   205.313    0.10E-03    0.46E-04    0.12E-06
   1      8     8.776   119.695    0.16E-03    0.24E-03    0.15E-06
   1      8     8.776    84.282    0.16E-03    0.23E-03    0.15E-06
   2      8     8.776     5.599    0.49E-04    0.35E-04    0.42E-07
 -----------------------------------------------------------------------------
|                                                                             |
|               ----> ADVICE to this user running VASP <----                  |
|                                                                             |
|     You enforced a specific xc type in the INCAR file but a different       |
|     type was found in the POTCAR file.                                      |
|     I HOPE YOU KNOW WHAT YOU ARE DOING!                                     |
|                                                                             |
 -----------------------------------------------------------------------------

  PAW_PBE Te 08Apr2002                  :
 energy of atom  1       EATOM= -223.2721
 kinetic energy error for atom=    0.0026 (will be added to EATOM!!)


 POSCAR: Te3
  positions in direct lattice
  velocities in cartesian coordinates
 exchange correlation table for  LEXCH =       14
   RHO(1)=    0.500       N(1)  =     2000
   RHO(2)=  100.500       N(2)  =     4000



--------------------------------------------------------------------------------------------------------


 ion  position               nearest neighbor table
   1  0.270  0.000  0.333-   2 2.83   3 2.84   2 3.40   2 3.40   3 3.40   3 3.40
   2  0.000  0.270  0.667-   1 2.83   3 2.84   1 3.40   1 3.40   3 3.40   3 3.40
   3  0.730  0.730  1.000-   2 2.84   1 2.84   2 3.40   1 3.40   1 3.40   2 3.40

  LATTYP: Found a hexagonal cell.
 ALAT       =     4.3077663214
 C/A-ratio  =     1.3905894206
  
  Lattice vectors:
  
 A1 = (   4.3077663214,  -0.0000000000,   0.0000000000)
 A2 = (  -2.1538831607,   3.7306350679,   0.0000000000)
 A3 = (   0.0000000000,   0.0000000000,   5.9903342731)


Analysis of symmetry for initial positions (statically):
=====================================================================
 Subroutine PRICEL returns:
 Original cell was already a primitive cell.
 

 Routine SETGRP: Setting up the symmetry group for a 
 hexagonal supercell.


 Subroutine GETGRP returns: Found  1 space group operations
 (whereof  1 operations were pure point group operations)
 out of a pool of 24 trial point group operations.


The static configuration has the point symmetry C_1 .


Analysis of symmetry for dynamics (positions and initial velocities):
=====================================================================
 Subroutine PRICEL returns:
 Original cell was already a primitive cell.
 

 Routine SETGRP: Setting up the symmetry group for a 
 hexagonal supercell.


 Subroutine GETGRP returns: Found  1 space group operations
 (whereof  1 operations were pure point group operations)
 out of a pool of 24 trial point group operations.


The dynamic configuration has the point symmetry C_1 .


Analysis of structural, dynamic, and magnetic symmetry:
=====================================================================
 Subroutine PRICEL returns:
 Original cell was already a primitive cell.
 

 Routine SETGRP: Setting up the symmetry group for a 
 hexagonal supercell.


 Subroutine GETGRP returns: Found  1 space group operations
 (whereof  1 operations were pure point group operations)
 out of a pool of 24 trial point group operations.


The overall configuration has the point symmetry C_1 .


 Subroutine INISYM returns: Found  1 space group operations
 (whereof  1 operations are pure point group operations),
 and found     1 'primitive' translations


----------------------------------------------------------------------------------------

                                     Primitive cell                                     

  volume of cell :      96.2689

  direct lattice vectors                    reciprocal lattice vectors
     4.307766321 -0.000000000  0.000000000     0.232138869  0.134025438 -0.000000000
    -2.153883161  3.730635068  0.000000000     0.000000000  0.268050877 -0.000000000
     0.000000000  0.000000000  5.990334273    -0.000000000 -0.000000000  0.166935592

  length of vectors
     4.307766321  4.307766321  5.990334273     0.268050877  0.268050877  0.166935592

  position of ions in fractional coordinates (direct lattice)
     0.269933414  0.000056632  0.333491549
     0.000026051  0.269882591  0.666519626
     0.730040535  0.730060777  0.999988825

  ion indices of the primitive-cell ions
   primitive index   ion index
                 1           1
                 2           2
                 3           3

----------------------------------------------------------------------------------------



 KPOINTS: K-Spacing Value to Generate K-Mesh: 0.03

Automatic generation of k-mesh.
 Grid dimensions read from file:
 generate k-points for:    5    5    3

 Generating k-lattice:

  Cartesian coordinates                     Fractional coordinates (reciprocal lattice)
     0.046427774  0.026805088 -0.000000000     0.200000000 -0.000000000  0.000000000
     0.000000000  0.053610175 -0.000000000    -0.000000000  0.200000000  0.000000000
    -0.000000000 -0.000000000  0.055645197     0.000000000 -0.000000000  0.333333333

  Length of vectors
     0.053610175  0.053610175  0.055645197

  Shift w.r.t. Gamma in fractional coordinates (k-lattice)
     0.000000000  0.000000000  0.000000000

 
 Subroutine IBZKPT returns following result:
 ===========================================
 
 Found     38 irreducible k-points:
 
 Following reciprocal coordinates:
            Coordinates               Weight
  0.000000  0.000000  0.000000      1.000000
  0.200000  0.000000  0.000000      2.000000
  0.000000  0.200000  0.000000      2.000000
 -0.200000  0.200000  0.000000      2.000000
  0.400000  0.000000  0.000000      2.000000
  0.000000  0.400000  0.000000      2.000000
 -0.400000  0.400000  0.000000      2.000000
  0.200000  0.200000  0.000000      2.000000
 -0.200000  0.400000  0.000000      2.000000
 -0.400000  0.200000  0.000000      2.000000
  0.400000  0.200000  0.000000      2.000000
 -0.200000 -0.400000  0.000000      2.000000
  0.400000  0.400000  0.000000      2.000000
  0.000000  0.000000  0.333333      2.000000
  0.200000  0.000000  0.333333      2.000000
  0.000000  0.200000  0.333333      2.000000
 -0.200000  0.200000  0.333333      2.000000
 -0.200000  0.000000  0.333333      2.000000
  0.000000 -0.200000  0.333333      2.000000
  0.200000 -0.200000  0.333333      2.000000
  0.400000  0.000000  0.333333      2.000000
  0.000000  0.400000  0.333333      2.000000
 -0.400000  0.400000  0.333333      2.000000
 -0.400000  0.000000  0.333333      2.000000
  0.000000 -0.400000  0.333333      2.000000
  0.400000 -0.400000  0.333333      2.000000
  0.200000  0.200000  0.333333      2.000000
 -0.200000  0.400000  0.333333      2.000000
 -0.400000  0.200000  0.333333      2.000000
 -0.200000 -0.200000  0.333333      2.000000
  0.200000 -0.400000  0.333333      2.000000
  0.400000 -0.200000  0.333333      2.000000
  0.400000  0.200000  0.333333      2.000000
 -0.200000 -0.400000  0.333333      2.000000
  0.400000  0.400000  0.333333      2.000000
 -0.400000 -0.200000  0.333333      2.000000
  0.200000  0.400000  0.333333      2.000000
 -0.400000 -0.400000  0.333333      2.000000
 
 Following cartesian coordinates:
            Coordinates               Weight
  0.000000  0.000000  0.000000      1.000000
  0.046428  0.026805  0.000000      2.000000
  0.000000  0.053610  0.000000      2.000000
 -0.046428  0.026805  0.000000      2.000000
  0.092856  0.053610  0.000000      2.000000
  0.000000  0.107220  0.000000      2.000000
 -0.092856  0.053610  0.000000      2.000000
  0.046428  0.080415  0.000000      2.000000
 -0.046428  0.080415  0.000000      2.000000
 -0.092856  0.000000  0.000000      2.000000
  0.092856  0.107220  0.000000      2.000000
 -0.046428 -0.134025  0.000000      2.000000
  0.092856  0.160831  0.000000      2.000000
  0.000000  0.000000  0.055645      2.000000
  0.046428  0.026805  0.055645      2.000000
  0.000000  0.053610  0.055645      2.000000
 -0.046428  0.026805  0.055645      2.000000
 -0.046428 -0.026805  0.055645      2.000000
  0.000000 -0.053610  0.055645      2.000000
  0.046428 -0.026805  0.055645      2.000000
  0.092856  0.053610  0.055645      2.000000
  0.000000  0.107220  0.055645      2.000000
 -0.092856  0.053610  0.055645      2.000000
 -0.092856 -0.053610  0.055645      2.000000
  0.000000 -0.107220  0.055645      2.000000
  0.092856 -0.053610  0.055645      2.000000
  0.046428  0.080415  0.055645      2.000000
 -0.046428  0.080415  0.055645      2.000000
 -0.092856  0.000000  0.055645      2.000000
 -0.046428 -0.080415  0.055645      2.000000
  0.046428 -0.080415  0.055645      2.000000
  0.092856  0.000000  0.055645      2.000000
  0.092856  0.107220  0.055645      2.000000
 -0.046428 -0.134025  0.055645      2.000000
  0.092856  0.160831  0.055645      2.000000
 -0.092856 -0.107220  0.055645      2.000000
  0.046428  0.134025  0.055645      2.000000
 -0.092856 -0.160831  0.055645      2.000000
 


--------------------------------------------------------------------------------------------------------




 Dimension of arrays:
   k-points           NKPTS =     38   k-points in BZ     NKDIM =     38   number of bands    NBANDS=    128
   number of dos      NEDOS =   2000   number of ions     NIONS =      3
   non local maximal  LDIM  =      5   non local SUM 2l+1 LMDIM =     13
   total plane-waves  NPLWV =  20736
   max r-space proj   IRMAX =   4043   max aug-charges    IRDMAX=  12726
   dimension x,y,z NGX =    24 NGY =   24 NGZ =   36
   dimension x,y,z NGXF=    48 NGYF=   48 NGZF=   72
   support grid    NGXF=    48 NGYF=   48 NGZF=   72
   ions per type =               3
   NGX,Y,Z   is equivalent  to a cutoff of   9.26,  9.26,  9.99 a.u.
   NGXF,Y,Z  is equivalent  to a cutoff of  18.52, 18.52, 19.98 a.u.

 SYSTEM =  unknown system                          
 POSCAR =  Te3                                     

 Startparameter for this run:
   NWRITE =      2    write-flag & timer
   PREC   = accura    normal or accurate (medium, high low for compatibility)
   ISTART =      0    job   : 0-new  1-cont  2-samecut
   ICHARG =      2    charge: 1-file 2-atom 10-const
   ISPIN  =      2    spin polarized calculation?
   LNONCOLLINEAR =      F non collinear calculations
   LSORBIT =      F    spin-orbit coupling
   INIWAV =      1    electr: 0-lowe 1-rand  2-diag
   LASPH  =      T    aspherical Exc in radial PAW
 Electronic Relaxation 1
   ENCUT  =  300.0 eV  22.05 Ry    4.70 a.u.   6.08  6.08  8.46*2*pi/ulx,y,z
   ENINI  =  300.0     initial cutoff
   ENAUG  =  368.8 eV  augmentation charge cutoff
   NELM   =     40;   NELMIN=  2; NELMDL=  0     # of ELM steps 
   EDIFF  = 0.1E-05   stopping-criterion for ELM
   LREAL  =      T    real-space projection
   NLSPLINE    = F    spline interpolate recip. space projectors
   LCOMPAT=      F    compatible to vasp.4.4
   GGA_COMPAT  = T    GGA compatible to vasp.4.4-vasp.4.6
   LMAXPAW     = -100 max onsite density
   LMAXMIX     =    4 max onsite mixed and CHGCAR
   VOSKOWN=      0    Vosko Wilk Nusair interpolation
   ROPT   =   -0.00025
 Ionic relaxation
   EDIFFG = -.5E-01   stopping-criterion for IOM
   NSW    =    300    number of steps for IOM
   NBLOCK =      1;   KBLOCK =    300    inner block; outer block 
   IBRION =      2    ionic relax: 0-MD 1-quasi-New 2-CG
   NFREE  =      1    steps in history (QN), initial steepest desc. (CG)
   ISIF   =      3    stress and relaxation
   IWAVPR =     11    prediction:  0-non 1-charg 2-wave 3-comb
   ISYM   =      2    0-nonsym 1-usesym 2-fastsym
   LCORR  =      T    Harris-Foulkes like correction to forces

   POTIM  = 0.5000    time-step for ionic-motion
   TEIN   =    0.0    initial temperature
   TEBEG  =    0.0;   TEEND  =   0.0 temperature during run
   SMASS  =  -3.00    Nose mass-parameter (am)
   estimated Nose-frequenzy (Omega)   =  0.10E-29 period in steps = 0.13E+47 mass=  -0.424E-27a.u.
   SCALEE = 1.0000    scale energy and forces
   NPACO  =    256;   APACO  = 10.0  distance and # of slots for P.C.
   PSTRESS=    0.0 pullay stress

  Mass of Ions in am
   POMASS = 127.60
  Ionic Valenz
   ZVAL   =   6.00
  Atomic Wigner-Seitz radii
   RWIGS  =  -1.00
  virtual crystal weights 
   VCA    =   1.00
   NELECT =      18.0000    total number of electrons
   NUPDOWN=      -1.0000    fix difference up-down

 DOS related values:
   EMIN   =  10.00;   EMAX   =-10.00  energy-range for DOS
   EFERMI =   0.00;   METHOD = LEGACY      
   ISMEAR =     0;   SIGMA  =   0.20  broadening in eV -4-tet -1-fermi 0-gaus

 Electronic relaxation 2 (details)
   IALGO  =     38    algorithm
   LDIAG  =      T    sub-space diagonalisation (order eigenvalues)
   LSUBROT=      F    optimize rotation matrix (better conditioning)
   TURBO    =      0    0=normal 1=particle mesh
   IRESTART =      0    0=no restart 2=restart with 2 vectors
   NREBOOT  =      0    no. of reboots
   NMIN     =      0    reboot dimension
   EREF     =   0.00    reference energy to select bands
   IMIX   =      4    mixing-type and parameters
     AMIX     =   0.40;   BMIX     =  1.00
     AMIX_MAG =   1.60;   BMIX_MAG =  1.00
     AMIN     =   0.10
     WC   =   100.;   INIMIX=   1;  MIXPRE=   1;  MAXMIX= -45

 Intra band minimization:
   WEIMIN = 0.0010     energy-eigenvalue tresh-hold
   EBREAK =  0.20E-08  absolut break condition
   DEPER  =   0.30     relativ break condition  

   TIME   =   0.40     timestep for ELM

  volume/ion in A,a.u.               =      32.09       216.55
  Fermi-wavevector in a.u.,A,eV,Ry     =   0.936132  1.769033 11.923368  0.876343
  Thomas-Fermi vector in A             =   2.063110

 Write flags
   LWAVE        =      F    write WAVECAR
   LDOWNSAMPLE  =      F    k-point downsampling of WAVECAR
   LCHARG       =      F    write CHGCAR
   LVTOT        =      F    write LOCPOT, total local potential
   LVHAR        =      T    write LOCPOT, Hartree potential only
   LELF         =      F    write electronic localiz. function (ELF)
   LORBIT       =     11    0 simple, 1 ext, 2 COOP (PROOUT), +10 PAW based schemes


 Dipole corrections
   LMONO  =      F    monopole corrections only (constant potential shift)
   LDIPOL =      F    correct potential (dipole corrections)
   IDIPOL =      0    1-x, 2-y, 3-z, 4-all directions 
   EPSILON=  1.0000000 bulk dielectric constant

 Exchange correlation treatment:
   GGA     =    PS    GGA type
   LEXCH   =    14    internal setting for exchange type
   LIBXC   =     F    Libxc                    
   VOSKOWN =     0    Vosko Wilk Nusair interpolation
   LHFCALC =     F    Hartree Fock is set to
   LHFONE  =     F    Hartree Fock one center treatment
   AEXX    =    0.0000 exact exchange contribution

 Linear response parameters
   LEPSILON=     F    determine dielectric tensor
   LRPA    =     F    only Hartree local field effects (RPA)
   LNABLA  =     F    use nabla operator in PAW spheres
   LVEL    =     F    velocity operator in full k-point grid
   CSHIFT  =0.1000    complex shift for real part using Kramers Kronig
   OMEGAMAX=  -1.0    maximum frequency
   DEG_THRESHOLD= 0.2000000E-02 threshold for treating states as degnerate
   RTIME   =   -0.100 relaxation time in fs
  (WPLASMAI=    0.000 imaginary part of plasma frequency in eV, 0.658/RTIME)
   DFIELD  = 0.0000000 0.0000000 0.0000000 field for delta impulse in time

  Optional k-point grid parameters
   LKPOINTS_OPT  =     F    use optional k-point grid
   KPOINTS_OPT_MODE=     1    mode for optional k-point grid

 Orbital magnetization related:
   ORBITALMAG=     F  switch on orbital magnetization
   LCHIMAG   =     F  perturbation theory with respect to B field
   DQ        =  0.001000  dq finite difference perturbation B field
   LLRAUG    =     F  two centre corrections for induced B field
   LBONE     =     F  B-component reconstruction in AE one-centre
   LVGVCALC  =     T  calculate vGv susceptibility
   LVGVAPPL  =     F  apply vGv susceptibility instead of pGv for G=0

 Random number generation:
   RANDOM_GENERATOR = DEFAULT
   PCG_SEED         = not used


--------------------------------------------------------------------------------------------------------


 conjugate gradient relaxation of ions
 charge density and potential will be updated during run
 spin polarized calculation
 Variant of blocked Davidson
 Davidson routine will perform the subspace rotation
 perform sub-space diagonalisation
    after iterative eigenvector-optimisation
 modified Broyden-mixing scheme, WC =      100.0
 initial mixing is a Kerker type mixing with AMIX =  0.4000 and BMIX =      1.0000
 Hartree-type preconditioning will be used
 using additional bands          119
 real space projection scheme for non local part
 use partial core corrections
 calculate Harris-corrections to forces   (improved forces if not selfconsistent)
 use gradient corrections 
 use of overlap-Matrix (Vanderbilt PP)
 Gauss-broadening in eV      SIGMA  =   0.20


--------------------------------------------------------------------------------------------------------


  energy-cutoff  :      300.00
  volume of cell :       96.27
      direct lattice vectors                 reciprocal lattice vectors
     4.307766321 -0.000000000  0.000000000     0.232138869  0.134025438 -0.000000000
    -2.153883161  3.730635068  0.000000000     0.000000000  0.268050877 -0.000000000
     0.000000000  0.000000000  5.990334273    -0.000000000 -0.000000000  0.166935592

  length of vectors
     4.307766321  4.307766321  5.990334273     0.268050877  0.268050877  0.166935592



 k-points in units of 2pi/SCALE and weight: K-Spacing Value to Generate K-Mesh: 0.03
   0.00000000  0.00000000  0.00000000       0.013
   0.04642777  0.02680509  0.00000000       0.027
   0.00000000  0.05361018  0.00000000       0.027
  -0.04642777  0.02680509  0.00000000       0.027
   0.09285555  0.05361018  0.00000000       0.027
   0.00000000  0.10722035  0.00000000       0.027
  -0.09285555  0.05361018  0.00000000       0.027
   0.04642777  0.08041526  0.00000000       0.027
  -0.04642777  0.08041526  0.00000000       0.027
  -0.09285555  0.00000000  0.00000000       0.027
   0.09285555  0.10722035  0.00000000       0.027
  -0.04642777 -0.13402544  0.00000000       0.027
   0.09285555  0.16083053  0.00000000       0.027
   0.00000000  0.00000000  0.05564520       0.027
   0.04642777  0.02680509  0.05564520       0.027
   0.00000000  0.05361018  0.05564520       0.027
  -0.04642777  0.02680509  0.05564520       0.027
  -0.04642777 -0.02680509  0.05564520       0.027
   0.00000000 -0.05361018  0.05564520       0.027
   0.04642777 -0.02680509  0.05564520       0.027
   0.09285555  0.05361018  0.05564520       0.027
   0.00000000  0.10722035  0.05564520       0.027
  -0.09285555  0.05361018  0.05564520       0.027
  -0.09285555 -0.05361018  0.05564520       0.027
   0.00000000 -0.10722035  0.05564520       0.027
   0.09285555 -0.05361018  0.05564520       0.027
   0.04642777  0.08041526  0.05564520       0.027
  -0.04642777  0.08041526  0.05564520       0.027
  -0.09285555  0.00000000  0.05564520       0.027
  -0.04642777 -0.08041526  0.05564520       0.027
   0.04642777 -0.08041526  0.05564520       0.027
   0.09285555  0.00000000  0.05564520       0.027
   0.09285555  0.10722035  0.05564520       0.027
  -0.04642777 -0.13402544  0.05564520       0.027
   0.09285555  0.16083053  0.05564520       0.027
  -0.09285555 -0.10722035  0.05564520       0.027
   0.04642777  0.13402544  0.05564520       0.027
  -0.09285555 -0.16083053  0.05564520       0.027

 k-points in reciprocal lattice and weights: K-Spacing Value to Generate K-Mesh: 0.03
   0.00000000  0.00000000  0.00000000       0.013
   0.20000000  0.00000000  0.00000000       0.027
   0.00000000  0.20000000  0.00000000       0.027
  -0.20000000  0.20000000  0.00000000       0.027
   0.40000000  0.00000000  0.00000000       0.027
   0.00000000  0.40000000  0.00000000       0.027
  -0.40000000  0.40000000  0.00000000       0.027
   0.20000000  0.20000000  0.00000000       0.027
  -0.20000000  0.40000000  0.00000000       0.027
  -0.40000000  0.20000000  0.00000000       0.027
   0.40000000  0.20000000  0.00000000       0.027
  -0.20000000 -0.40000000  0.00000000       0.027
   0.40000000  0.40000000  0.00000000       0.027
   0.00000000  0.00000000  0.33333333       0.027
   0.20000000  0.00000000  0.33333333       0.027
   0.00000000  0.20000000  0.33333333       0.027
  -0.20000000  0.20000000  0.33333333       0.027
  -0.20000000  0.00000000  0.33333333       0.027
   0.00000000 -0.20000000  0.33333333       0.027
   0.20000000 -0.20000000  0.33333333       0.027
   0.40000000  0.00000000  0.33333333       0.027
   0.00000000  0.40000000  0.33333333       0.027
  -0.40000000  0.40000000  0.33333333       0.027
  -0.40000000  0.00000000  0.33333333       0.027
   0.00000000 -0.40000000  0.33333333       0.027
   0.40000000 -0.40000000  0.33333333       0.027
   0.20000000  0.20000000  0.33333333       0.027
  -0.20000000  0.40000000  0.33333333       0.027
  -0.40000000  0.20000000  0.33333333       0.027
  -0.20000000 -0.20000000  0.33333333       0.027
   0.20000000 -0.40000000  0.33333333       0.027
   0.40000000 -0.20000000  0.33333333       0.027
   0.40000000  0.20000000  0.33333333       0.027
  -0.20000000 -0.40000000  0.33333333       0.027
   0.40000000  0.40000000  0.33333333       0.027
  -0.40000000 -0.20000000  0.33333333       0.027
   0.20000000  0.40000000  0.33333333       0.027
  -0.40000000 -0.40000000  0.33333333       0.027

 position of ions in fractional coordinates (direct lattice) 
   0.26993341  0.00005663  0.33349155
   0.00002605  0.26988259  0.66651963
   0.73004054  0.73006078  0.99998883

 position of ions in cartesian coordinates  (Angst):
   1.16268809  0.00021127  1.99772586
  -0.58118335  1.00683346  3.99267536
   1.57237842  2.72359034  5.99026733



--------------------------------------------------------------------------------------------------------


 k-point   1 :   0.0000 0.0000 0.0000  plane waves:    1121
 k-point   2 :   0.2000 0.0000 0.0000  plane waves:    1139
 k-point   3 :   0.0000 0.2000 0.0000  plane waves:    1139
 k-point   4 :  -0.2000 0.2000 0.0000  plane waves:    1139
 k-point   5 :   0.4000 0.0000 0.0000  plane waves:    1134
 k-point   6 :   0.0000 0.4000 0.0000  plane waves:    1134
 k-point   7 :  -0.4000 0.4000 0.0000  plane waves:    1134
 k-point   8 :   0.2000 0.2000 0.0000  plane waves:    1138
 k-point   9 :  -0.2000 0.4000 0.0000  plane waves:    1138
 k-point  10 :  -0.4000 0.2000 0.0000  plane waves:    1138
 k-point  11 :   0.4000 0.2000 0.0000  plane waves:    1152
 k-point  12 :  -0.2000-0.4000 0.0000  plane waves:    1152
 k-point  13 :   0.4000 0.4000 0.0000  plane waves:    1152
 k-point  14 :   0.0000 0.0000 0.3333  plane waves:    1115
 k-point  15 :   0.2000 0.0000 0.3333  plane waves:    1134
 k-point  16 :   0.0000 0.2000 0.3333  plane waves:    1134
 k-point  17 :  -0.2000 0.2000 0.3333  plane waves:    1134
 k-point  18 :  -0.2000 0.0000 0.3333  plane waves:    1134
 k-point  19 :   0.0000-0.2000 0.3333  plane waves:    1134
 k-point  20 :   0.2000-0.2000 0.3333  plane waves:    1134
 k-point  21 :   0.4000 0.0000 0.3333  plane waves:    1144
 k-point  22 :   0.0000 0.4000 0.3333  plane waves:    1144
 k-point  23 :  -0.4000 0.4000 0.3333  plane waves:    1144
 k-point  24 :  -0.4000 0.0000 0.3333  plane waves:    1144
 k-point  25 :   0.0000-0.4000 0.3333  plane waves:    1144
 k-point  26 :   0.4000-0.4000 0.3333  plane waves:    1144
 k-point  27 :   0.2000 0.2000 0.3333  plane waves:    1129
 k-point  28 :  -0.2000 0.4000 0.3333  plane waves:    1129
 k-point  29 :  -0.4000 0.2000 0.3333  plane waves:    1129
 k-point  30 :  -0.2000-0.2000 0.3333  plane waves:    1129
 k-point  31 :   0.2000-0.4000 0.3333  plane waves:    1129
 k-point  32 :   0.4000-0.2000 0.3333  plane waves:    1129
 k-point  33 :   0.4000 0.2000 0.3333  plane waves:    1145
 k-point  34 :  -0.2000-0.4000 0.3333  plane waves:    1145
 k-point  35 :   0.4000 0.4000 0.3333  plane waves:    1145
 k-point  36 :  -0.4000-0.2000 0.3333  plane waves:    1145
 k-point  37 :   0.2000 0.4000 0.3333  plane waves:    1145
 k-point  38 :  -0.4000-0.4000 0.3333  plane waves:    1145

 maximum and minimum number of plane-waves per node :       315      266

 maximum number of plane-waves:      1152
 maximum index in each direction: 
   IXMAX=    6   IYMAX=    6   IZMAX=    8
   IXMIN=   -6   IYMIN=   -6   IZMIN=   -8


 real space projection operators:
  total allocation   :       1177.52 KBytes
  max/ min on nodes  :        294.94        294.12


 parallel 3D FFT for wavefunctions:
    minimum data exchange during FFTs selected (reduces bandwidth)
 parallel 3D FFT for charge:
    minimum data exchange during FFTs selected (reduces bandwidth)


 total amount of memory used by VASP MPI-rank0    32265. kBytes
=======================================================================

   base      :      30000. kBytes
   nonlr-proj:        565. kBytes
   fftplans  :        389. kBytes
   grid      :        673. kBytes
   one-center:         16. kBytes
   wavefun   :        622. kBytes

     INWAV:  cpu time      0.0000: real time      0.0000
 Broyden mixing: mesh for mixing (old mesh)
   NGX = 13   NGY = 13   NGZ = 17
  (NGX  = 48   NGY  = 48   NGZ  = 72)
  gives a total of   2873 points

 initial charge density was supplied:
 charge density of overlapping atoms calculated
 number of electron      18.0000000 magnetization       3.0000000
 keeping initial charge density in first step


--------------------------------------------------------------------------------------------------------


 Maximum index for non-local projection operator          989
 Maximum index for augmentation-charges          601 (set IRDMAX)


--------------------------------------------------------------------------------------------------------


 First call to EWALD:  gamma=   0.387
 Maximum number of real-space cells 3x 3x 2
 Maximum number of reciprocal cells 3x 3x 3

    FEWALD:  cpu time      0.0006: real time      0.0006


--------------------------------------- Ionic step        1  -------------------------------------------




--------------------------------------- Iteration      1(   1)  ---------------------------------------


    POTLOK:  cpu time      0.1652: real time      0.1692
    SETDIJ:  cpu time      0.7269: real time      0.7290
     EDDAV:  cpu time     46.4155: real time     46.6299
       DOS:  cpu time      0.0063: real time      0.0068
    --------------------------------------------
      LOOP:  cpu time     47.3139: real time     47.5349

 eigenvalue-minimisations  : 28672
 total energy-change (2. order) :-0.4668899E+01  (-0.5624454E+03)
 number of electron      18.0000000 magnetization       3.0000000
 augmentation part       18.0000000 magnetization       3.0000000

 Free energy of the ion-electron system (eV)
  ---------------------------------------------------
  alpha Z        PSCENC =         2.42812222
  Ewald energy   TEWEN  =      -689.12489898
  -Hartree energ DENC   =       -38.91464536
  -exchange      EXHF   =         0.00000000
  -V(xc)+E(xc)   XCENC  =       -81.35396697
  PAW double counting   =       620.77321418     -506.48105320
  entropy T*S    EENTRO =        -0.00935092
  eigenvalues    EBANDS =        18.01680755
  atomic energy  EATOM  =       669.99687213
  Solvation  Ediel_sol  =         0.00000000
  ---------------------------------------------------
  free energy    TOTEN  =        -4.66889935 eV

  energy without entropy =       -4.65954843  energy(sigma->0) =       -4.66422389


--------------------------------------------------------------------------------------------------------




--------------------------------------- Iteration      1(   2)  ---------------------------------------


     EDDAV:  cpu time     38.1104: real time     38.3107
       DOS:  cpu time      0.0436: real time      0.0441
    --------------------------------------------
      LOOP:  cpu time     38.1540: real time     38.3549

 eigenvalue-minimisations  : 25856
 total energy-change (2. order) :-0.5413267E+01  (-0.5410573E+01)
 number of electron      18.0000000 magnetization       3.0000000
 augmentation part       18.0000000 magnetization       3.0000000

 Free energy of the ion-electron system (eV)
  ---------------------------------------------------
  alpha Z        PSCENC =         2.42812222
  Ewald energy   TEWEN  =      -689.12489898
  -Hartree energ DENC   =       -38.91464536
  -exchange      EXHF   =         0.00000000
  -V(xc)+E(xc)   XCENC  =       -81.35396697
  PAW double counting   =       620.77321418     -506.48105320
  entropy T*S    EENTRO =        -0.00637004
  eigenvalues    EBANDS =        12.60056012
  atomic energy  EATOM  =       669.99687213
  Solvation  Ediel_sol  =         0.00000000
  ---------------------------------------------------
  free energy    TOTEN  =       -10.08216591 eV

  energy without entropy =      -10.07579586  energy(sigma->0) =      -10.07898088


--------------------------------------------------------------------------------------------------------




--------------------------------------- Iteration      1(   3)  ---------------------------------------


     EDDAV:  cpu time     49.7184: real time     50.0640
       DOS:  cpu time      0.0204: real time      0.0209
    --------------------------------------------
      LOOP:  cpu time     49.7388: real time     50.0849

 eigenvalue-minimisations  : 29312
 total energy-change (2. order) :-0.3055054E-02  (-0.3055048E-02)
 number of electron      18.0000000 magnetization       3.0000000
 augmentation part       18.0000000 magnetization       3.0000000

 Free energy of the ion-electron system (eV)
  ---------------------------------------------------
  alpha Z        PSCENC =         2.42812222
  Ewald energy   TEWEN  =      -689.12489898
  -Hartree energ DENC   =       -38.91464536
  -exchange      EXHF   =         0.00000000
  -V(xc)+E(xc)   XCENC  =       -81.35396697
  PAW double counting   =       620.77321418     -506.48105320
  entropy T*S    EENTRO =        -0.00636651
  eigenvalues    EBANDS =        12.59750154
  atomic energy  EATOM  =       669.99687213
  Solvation  Ediel_sol  =         0.00000000
  ---------------------------------------------------
  free energy    TOTEN  =       -10.08522096 eV

  energy without entropy =      -10.07885445  energy(sigma->0) =      -10.08203770


--------------------------------------------------------------------------------------------------------




--------------------------------------- Iteration      1(   4)  ---------------------------------------


     EDDAV:  cpu time     54.1728: real time     54.5163
       DOS:  cpu time      0.0197: real time      0.0202
    --------------------------------------------
      LOOP:  cpu time     54.1925: real time     54.5365

 eigenvalue-minimisations  : 29440
 total energy-change (2. order) :-0.1235819E-06  (-0.1239455E-06)
 number of electron      18.0000000 magnetization       3.0000000
 augmentation part       18.0000000 magnetization       3.0000000

 Free energy of the ion-electron system (eV)
  ---------------------------------------------------
  alpha Z        PSCENC =         2.42812222
  Ewald energy   TEWEN  =      -689.12489898
  -Hartree energ DENC   =       -38.91464536
  -exchange      EXHF   =         0.00000000
  -V(xc)+E(xc)   XCENC  =       -81.35396697
  PAW double counting   =       620.77321418     -506.48105320
  entropy T*S    EENTRO =        -0.00636651
  eigenvalues    EBANDS =        12.59750141
  atomic energy  EATOM  =       669.99687213
  Solvation  Ediel_sol  =         0.00000000
  ---------------------------------------------------
  free energy    TOTEN  =       -10.08522108 eV

  energy without entropy =      -10.07885457  energy(sigma->0) =      -10.08203783


--------------------------------------------------------------------------------------------------------




--------------------------------------- Iteration      1(   5)  ---------------------------------------


     EDDAV:  cpu time     51.9690: real time     52.2109
       DOS:  cpu time      0.0184: real time      0.0190
    CHARGE:  cpu time      0.0229: real time      0.0230
    MIXING:  cpu time      0.0009: real time      0.0009
    --------------------------------------------
      LOOP:  cpu time     52.0112: real time     52.2537

 eigenvalue-minimisations  : 28928
 total energy-change (2. order) :-0.7534027E-09  ( 0.2287732E-13)
 number of electron      17.9999987 magnetization       0.5035397
 augmentation part       -3.6164169 magnetization       0.4998225

 Broyden mixing:
  rms(total) = 0.14568E+01    rms(broyden)= 0.14568E+01
  rms(prec ) = 0.14699E+01
  weight for this iteration     100.00

 Free energy of the ion-electron system (eV)
  ---------------------------------------------------
  alpha Z        PSCENC =         2.42812222
  Ewald energy   TEWEN  =      -689.12489898
  -Hartree energ DENC   =       -38.91464536
  -exchange      EXHF   =         0.00000000
  -V(xc)+E(xc)   XCENC  =       -81.35396697
  PAW double counting   =       620.77321418     -506.48105320
  entropy T*S    EENTRO =        -0.00636651
  eigenvalues    EBANDS =        12.59750141
  atomic energy  EATOM  =       669.99687213
  Solvation  Ediel_sol  =         0.00000000
  ---------------------------------------------------
  free energy    TOTEN  =       -10.08522108 eV

  energy without entropy =      -10.07885457  energy(sigma->0) =      -10.08203783


--------------------------------------------------------------------------------------------------------




--------------------------------------- Iteration      1(   6)  ---------------------------------------


    POTLOK:  cpu time      0.0951: real time      0.0959
    SETDIJ:  cpu time      0.7097: real time      0.7257
     EDDAV:  cpu time     86.9167: real time     87.7841
       DOS:  cpu time      0.0197: real time      0.0203
    CHARGE:  cpu time      0.0670: real time      0.0673
    MIXING:  cpu time      0.0004: real time      0.0009
    --------------------------------------------
      LOOP:  cpu time     87.8087: real time     88.6942

 eigenvalue-minimisations  : 38016
 total energy-change (2. order) :-0.4007441E+00  (-0.2765414E-01)
 number of electron      17.9999987 magnetization      -0.1606168
 augmentation part       -3.6182197 magnetization      -0.1420814

 Broyden mixing:
  rms(total) = 0.88344E+00    rms(broyden)= 0.88344E+00
  rms(prec ) = 0.89076E+00
  weight for this iteration     100.00

 eigenvalues of (default mixing * dielectric matrix)
  average eigenvalue GAMMA=   1.0035
  1.0035

 Free energy of the ion-electron system (eV)
  ---------------------------------------------------
  alpha Z        PSCENC =         2.42812222
  Ewald energy   TEWEN  =      -689.12489898
  -Hartree energ DENC   =       -38.83412630
  -exchange      EXHF   =         0.00000000
  -V(xc)+E(xc)   XCENC  =       -81.52537948
  PAW double counting   =       951.99893715     -837.76397463
  entropy T*S    EENTRO =        -0.00004890
  eigenvalues    EBANDS =        12.33853164
  atomic energy  EATOM  =       669.99687213
  Solvation  Ediel_sol  =         0.00000000
  ---------------------------------------------------
  free energy    TOTEN  =       -10.48596514 eV

  energy without entropy =      -10.48591625  energy(sigma->0) =      -10.48594070


--------------------------------------------------------------------------------------------------------




--------------------------------------- Iteration      1(   7)  ---------------------------------------


    POTLOK:  cpu time      0.1091: real time      0.1099
    SETDIJ:  cpu time      0.7916: real time      0.7955
     EDDAV:  cpu time     79.5422: real time     79.8821
       DOS:  cpu time      0.0203: real time      0.0209
    CHARGE:  cpu time      0.0210: real time      0.0211
    MIXING:  cpu time      0.0003: real time      0.0003
    --------------------------------------------
      LOOP:  cpu time     80.4845: real time     80.8298

 eigenvalue-minimisations  : 37888
 total energy-change (2. order) :-0.4882710E-01  (-0.2522828E-01)
 number of electron      17.9999987 magnetization      -0.2578953
 augmentation part       -3.6203838 magnetization      -0.2645026

 Broyden mixing:
  rms(total) = 0.57900E+00    rms(broyden)= 0.57900E+00
  rms(prec ) = 0.58042E+00
  weight for this iteration     100.00

 eigenvalues of (default mixing * dielectric matrix)
  average eigenvalue GAMMA=   1.2870
  2.0407  0.5333

 Free energy of the ion-electron system (eV)
  ---------------------------------------------------
  alpha Z        PSCENC =         2.42812222
  Ewald energy   TEWEN  =      -689.12489898
  -Hartree energ DENC   =       -38.85265668
  -exchange      EXHF   =         0.00000000
  -V(xc)+E(xc)   XCENC  =       -81.51005154
  PAW double counting   =      1353.58558779    -1239.40586387
  entropy T*S    EENTRO =        -0.00004001
  eigenvalues    EBANDS =        12.34813670
  atomic energy  EATOM  =       669.99687213
  Solvation  Ediel_sol  =         0.00000000
  ---------------------------------------------------
  free energy    TOTEN  =       -10.53479224 eV

  energy without entropy =      -10.53475223  energy(sigma->0) =      -10.53477224


--------------------------------------------------------------------------------------------------------




--------------------------------------- Iteration      1(   8)  ---------------------------------------


    POTLOK:  cpu time      0.0800: real time      0.0973
    SETDIJ:  cpu time      0.7166: real time      0.7187
     EDDAV:  cpu time     78.2719: real time     78.6039
       DOS:  cpu time      0.0206: real time      0.0212
    CHARGE:  cpu time      0.0209: real time      0.0210
    MIXING:  cpu time      0.0003: real time      0.0003
    --------------------------------------------
      LOOP:  cpu time     79.1103: real time     79.4624

 eigenvalue-minimisations  : 37504
 total energy-change (2. order) : 0.1154963E-01  (-0.1033989E-02)
 number of electron      17.9999987 magnetization      -0.0543463
 augmentation part       -3.6219418 magnetization      -0.0643884

 Broyden mixing:
  rms(total) = 0.10497E+00    rms(broyden)= 0.10497E+00
  rms(prec ) = 0.10563E+00
  weight for this iteration     100.00

 eigenvalues of (default mixing * dielectric matrix)
  average eigenvalue GAMMA=   1.3552
  2.5411  0.9288  0.5957

 Free energy of the ion-electron system (eV)
  ---------------------------------------------------
  alpha Z        PSCENC =         2.42812222
  Ewald energy   TEWEN  =      -689.12489898
  -Hartree energ DENC   =       -38.87968089
  -exchange      EXHF   =         0.00000000
  -V(xc)+E(xc)   XCENC  =       -81.49018087
  PAW double counting   =      1587.36587496    -1473.21153478
  entropy T*S    EENTRO =        -0.00004708
  eigenvalues    EBANDS =        12.39223066
  atomic energy  EATOM  =       669.99687213
  Solvation  Ediel_sol  =         0.00000000
  ---------------------------------------------------
  free energy    TOTEN  =       -10.52324261 eV

  energy without entropy =      -10.52319554  energy(sigma->0) =      -10.52321908


--------------------------------------------------------------------------------------------------------




--------------------------------------- Iteration      1(   9)  ---------------------------------------


    POTLOK:  cpu time      0.0947: real time      0.0955
    SETDIJ:  cpu time      0.6874: real time      0.6908
     EDDAV:  cpu time     82.0006: real time     82.4418
       DOS:  cpu time      0.0422: real time      0.0429
    CHARGE:  cpu time      0.0259: real time      0.0261
    MIXING:  cpu time      0.0003: real time      0.0003
    --------------------------------------------
      LOOP:  cpu time     82.8511: real time     83.2975

 eigenvalue-minimisations  : 37376
 total energy-change (2. order) :-0.1755413E-01  (-0.2522260E-02)
 number of electron      17.9999987 magnetization      -0.0046708
 augmentation part       -3.6220687 magnetization      -0.0061925

 Broyden mixing:
  rms(total) = 0.22639E-01    rms(broyden)= 0.22639E-01
  rms(prec ) = 0.23382E-01
  weight for this iteration     100.00

 eigenvalues of (default mixing * dielectric matrix)
  average eigenvalue GAMMA=   1.2689
  2.5748  0.6129  0.8584  1.0294

 Free energy of the ion-electron system (eV)
  ---------------------------------------------------
  alpha Z        PSCENC =         2.42812222
  Ewald energy   TEWEN  =      -689.12489898
  -Hartree energ DENC   =       -38.90129850
  -exchange      EXHF   =         0.00000000
  -V(xc)+E(xc)   XCENC  =       -81.49237937
  PAW double counting   =      1649.46777653    -1535.31907142
  entropy T*S    EENTRO =        -0.00004193
  eigenvalues    EBANDS =        12.40412258
  atomic energy  EATOM  =       669.99687213
  Solvation  Ediel_sol  =         0.00000000
  ---------------------------------------------------
  free energy    TOTEN  =       -10.54079674 eV

  energy without entropy =      -10.54075481  energy(sigma->0) =      -10.54077578


--------------------------------------------------------------------------------------------------------




--------------------------------------- Iteration      1(  10)  ---------------------------------------


    POTLOK:  cpu time      0.2206: real time      0.2221
    SETDIJ:  cpu time      0.6833: real time      0.6852
     EDDAV:  cpu time     78.0449: real time     78.4811
       DOS:  cpu time      0.0205: real time      0.0211
    CHARGE:  cpu time      0.0242: real time      0.0243
    MIXING:  cpu time      0.0004: real time      0.0004
    --------------------------------------------
      LOOP:  cpu time     78.9938: real time     79.4341

 eigenvalue-minimisations  : 37376
 total energy-change (2. order) :-0.8576650E-03  (-0.1750038E-03)
 number of electron      17.9999987 magnetization       0.0014409
 augmentation part       -3.6221161 magnetization       0.0012915

 Broyden mixing:
  rms(total) = 0.77879E-02    rms(broyden)= 0.77879E-02
  rms(prec ) = 0.82344E-02
  weight for this iteration     100.00

 eigenvalues of (default mixing * dielectric matrix)
  average eigenvalue GAMMA=   1.1860
  2.5805  1.1808  0.9353  0.6168  0.6168

 Free energy of the ion-electron system (eV)
  ---------------------------------------------------
  alpha Z        PSCENC =         2.42812222
  Ewald energy   TEWEN  =      -689.12489898
  -Hartree energ DENC   =       -38.90376757
  -exchange      EXHF   =         0.00000000
  -V(xc)+E(xc)   XCENC  =       -81.49320222
  PAW double counting   =      1649.27087792    -1535.12132697
  entropy T*S    EENTRO =        -0.00004100
  eigenvalues    EBANDS =        12.40571007
  atomic energy  EATOM  =       669.99687213
  Solvation  Ediel_sol  =         0.00000000
  ---------------------------------------------------
  free energy    TOTEN  =       -10.54165441 eV

  energy without entropy =      -10.54161341  energy(sigma->0) =      -10.54163391


--------------------------------------------------------------------------------------------------------




--------------------------------------- Iteration      1(  11)  ---------------------------------------


    POTLOK:  cpu time      0.1024: real time      0.1033
    SETDIJ:  cpu time      0.6719: real time      0.6741
     EDDAV:  cpu time     21.9188: real time     22.0196
       DOS:  cpu time      0.0201: real time      0.0206
    CHARGE:  cpu time      0.0209: real time      0.0210
    MIXING:  cpu time      0.0004: real time      0.0004
    --------------------------------------------
      LOOP:  cpu time     22.7345: real time     22.8389

 eigenvalue-minimisations  : 21120
 total energy-change (2. order) :-0.1917293E-05  (-0.3230777E-05)
 number of electron      17.9999987 magnetization       0.0006798
 augmentation part       -3.6221494 magnetization       0.0006994

 Broyden mixing:
  rms(total) = 0.26624E-02    rms(broyden)= 0.26624E-02
  rms(prec ) = 0.30353E-02
  weight for this iteration     100.00

 eigenvalues of (default mixing * dielectric matrix)
  average eigenvalue GAMMA=   1.1762
  2.5746  1.3172  1.0626  0.8685  0.6172  0.6172

 Free energy of the ion-electron system (eV)
  ---------------------------------------------------
  alpha Z        PSCENC =         2.42812222
  Ewald energy   TEWEN  =      -689.12489898
  -Hartree energ DENC   =       -38.90407325
  -exchange      EXHF   =         0.00000000
  -V(xc)+E(xc)   XCENC  =       -81.49356766
  PAW double counting   =      1647.91653860    -1533.76646103
  entropy T*S    EENTRO =        -0.00004078
  eigenvalues    EBANDS =        12.40585243
  atomic energy  EATOM  =       669.99687213
  Solvation  Ediel_sol  =         0.00000000
  ---------------------------------------------------
  free energy    TOTEN  =       -10.54165633 eV

  energy without entropy =      -10.54161555  energy(sigma->0) =      -10.54163594


--------------------------------------------------------------------------------------------------------




--------------------------------------- Iteration      1(  12)  ---------------------------------------


    POTLOK:  cpu time      0.2149: real time      0.2162
    SETDIJ:  cpu time      0.6739: real time      0.6763
     EDDAV:  cpu time     86.0085: real time     86.3686
       DOS:  cpu time      0.0207: real time      0.0213
    CHARGE:  cpu time      0.0209: real time      0.0210
    MIXING:  cpu time      0.0004: real time      0.0004
    --------------------------------------------
      LOOP:  cpu time     86.9392: real time     87.3039

 eigenvalue-minimisations  : 38144
 total energy-change (2. order) : 0.1084927E-05  (-0.1233641E-05)
 number of electron      17.9999987 magnetization      -0.0001598
 augmentation part       -3.6221927 magnetization      -0.0001308

 Broyden mixing:
  rms(total) = 0.12544E-02    rms(broyden)= 0.12544E-02
  rms(prec ) = 0.13289E-02
  weight for this iteration     100.00

 eigenvalues of (default mixing * dielectric matrix)
  average eigenvalue GAMMA=   1.3103
  2.4845  2.4845  1.1947  0.9930  0.7730  0.6213  0.6213

 Free energy of the ion-electron system (eV)
  ---------------------------------------------------
  alpha Z        PSCENC =         2.42812222
  Ewald energy   TEWEN  =      -689.12489898
  -Hartree energ DENC   =       -38.90400745
  -exchange      EXHF   =         0.00000000
  -V(xc)+E(xc)   XCENC  =       -81.49396805
  PAW double counting   =      1646.18124627    -1532.03058828
  entropy T*S    EENTRO =        -0.00004059
  eigenvalues    EBANDS =        12.40560748
  atomic energy  EATOM  =       669.99687213
  Solvation  Ediel_sol  =         0.00000000
  ---------------------------------------------------
  free energy    TOTEN  =       -10.54165524 eV

  energy without entropy =      -10.54161466  energy(sigma->0) =      -10.54163495


--------------------------------------------------------------------------------------------------------




--------------------------------------- Iteration      1(  13)  ---------------------------------------


    POTLOK:  cpu time      0.1213: real time      0.1222
    SETDIJ:  cpu time      0.6705: real time      0.6726
     EDDAV:  cpu time     76.0175: real time     76.3462
       DOS:  cpu time      0.0200: real time      0.0205
    --------------------------------------------
      LOOP:  cpu time     76.8292: real time     77.1615

 eigenvalue-minimisations  : 36608
 total energy-change (2. order) :-0.7243455E-07  (-0.1657874E-06)
 number of electron      17.9999987 magnetization      -0.0001598
 augmentation part       -3.6221927 magnetization      -0.0001308

 Free energy of the ion-electron system (eV)
  ---------------------------------------------------
  alpha Z        PSCENC =         2.42812222
  Ewald energy   TEWEN  =      -689.12489898
  -Hartree energ DENC   =       -38.90396410
  -exchange      EXHF   =         0.00000000
  -V(xc)+E(xc)   XCENC  =       -81.49413911
  PAW double counting   =      1645.44147804    -1531.29057525
  entropy T*S    EENTRO =        -0.00004052
  eigenvalues    EBANDS =        12.40549026
  atomic energy  EATOM  =       669.99687213
  Solvation  Ediel_sol  =         0.00000000
  ---------------------------------------------------
  free energy    TOTEN  =       -10.54165531 eV

  energy without entropy =      -10.54161479  energy(sigma->0) =      -10.54163505


--------------------------------------------------------------------------------------------------------




 average (electrostatic) potential at core
  the test charge radii are     1.1897
  (the norm of the test charge is              1.0000)
       1 -88.2646       2 -88.2649       3 -88.2614



 E-fermi :   6.6164     XC(G=0):  -9.4798     alpha+bet :-11.1705

 Fermi energy:         6.6164426543

 spin component 1

 k-point     1 :       0.0000    0.0000    0.0000
  band No.  band energies     occupation 
      1      -7.4800      1.00000
      2      -4.0451      1.00000
      3      -4.0401      1.00000
      4       3.5013      1.00000
      5       3.8286      1.00000
      6       3.8297      1.00000
      7       4.8524      1.00000
      8       4.8536      1.00000
      9       5.7019      1.00000
     10       7.5268      0.00000
     11       7.5305      0.00000
     12       8.3417      0.00000
     13      11.2469      0.00000
     14      11.2507      0.00000
     15      12.5695      0.00000
     16      12.7269      0.00000
     17      12.7290      0.00000
     18      13.0127      0.00000
     19      13.0431      0.00000
     20      13.8938      0.00000
     21      13.8952      0.00000
     22      16.2795      0.00000
     23      16.2819      0.00000
     24      21.3824      0.00000
     25      21.3824      0.00000
     26      21.4817      0.00000
     27      22.3005      0.00000
     28      22.9518      0.00000
     29      22.9527      0.00000
     30      23.6017      0.00000
     31      24.1432      0.00000
     32      24.2237      0.00000
     33      24.2240      0.00000
     34      24.3668      0.00000
     35      24.3731      0.00000
     36      26.9483      0.00000
     37      27.9010      0.00000
     38      27.9023      0.00000
     39      28.0497      0.00000
     40      28.0508      0.00000
     41      29.5206      0.00000
     42      29.7850      0.00000
     43      29.7897      0.00000
     44      30.1185      0.00000
     45      30.4172      0.00000
     46      30.7289      0.00000
     47      30.7937      0.00000
     48      30.7937      0.00000
     49      31.1067      0.00000
     50      31.1099      0.00000
     51      31.8266      0.00000
     52      31.8273      0.00000
     53      32.0166      0.00000
     54      32.0251      0.00000
     55      34.1679      0.00000
     56      34.6215      0.00000
     57      35.7988      0.00000
     58      35.7992      0.00000
     59      36.1613      0.00000
     60      36.1629      0.00000
     61      37.6667      0.00000
     62      37.9392      0.00000
     63      37.9413      0.00000
     64      37.9542      0.00000
     65      38.6684      0.00000
     66      39.1305      0.00000
     67      39.1934      0.00000
     68      39.1950      0.00000
     69      39.8348      0.00000
     70      39.8354      0.00000
     71      40.5715      0.00000
     72      41.0787      0.00000
     73      41.0814      0.00000
     74      41.2119      0.00000
     75      41.4861      0.00000
     76      41.4896      0.00000
     77      41.5216      0.00000
     78      41.9295      0.00000
     79      41.9303      0.00000
     80      42.3111      0.00000
     81      42.3127      0.00000
     82      42.4958      0.00000
     83      44.1948      0.00000
     84      44.1986      0.00000
     85      45.4129      0.00000
     86      45.4168      0.00000
     87      45.5700      0.00000
     88      45.5750      0.00000
     89      46.4639      0.00000
     90      46.4676      0.00000
     91      46.7314      0.00000
     92      46.7334      0.00000
     93      47.0605      0.00000
     94      47.8578      0.00000
     95      47.8621      0.00000
     96      48.3285      0.00000
     97      49.1724      0.00000
     98      49.1730      0.00000
     99      49.5753      0.00000
    100      49.8201      0.00000
    101      51.9657      0.00000
    102      51.9702      0.00000
    103      52.8441      0.00000
    104      52.8468      0.00000
    105      53.0679      0.00000
    106      53.5007      0.00000
    107      54.4829      0.00000
    108      54.4886      0.00000
    109      55.7324      0.00000
    110      56.1542      0.00000
    111      56.1594      0.00000
    112      56.8061      0.00000
    113      57.7237      0.00000
    114      57.7271      0.00000
    115      57.8723      0.00000
    116      58.4818      0.00000
    117      58.4848      0.00000
    118      58.7433      0.00000
    119      59.3408      0.00000
    120      59.6530      0.00000
    121      59.6570      0.00000
    122      60.7579      0.00000
    123      60.7658      0.00000
    124      61.1147      0.00000
    125      61.1154      0.00000
    126      61.2220      0.00000
    127      61.5455      0.00000
    128      61.8481      0.00000

 k-point     2 :       0.2000    0.0000    0.0000
  band No.  band energies     occupation 
      1      -7.1796      1.00000
      2      -4.1032      1.00000
      3      -3.9234      1.00000
      4       1.9406      1.00000
      5       2.7397      1.00000
      6       3.2567      1.00000
      7       5.3133      1.00000
      8       5.5631      1.00000
      9       5.7136      1.00000
     10       7.3485      0.00000
     11       7.5424      0.00000
     12       8.1768      0.00000
     13      10.4067      0.00000
     14      11.5057      0.00000
     15      12.7078      0.00000
     16      13.2261      0.00000
     17      13.8338      0.00000
     18      14.0955      0.00000
     19      14.4596      0.00000
     20      15.0535      0.00000
     21      16.1891      0.00000
     22      17.5140      0.00000
     23      18.0029      0.00000
     24      19.3379      0.00000
     25      19.6453      0.00000
     26      21.0790      0.00000
     27      21.4288      0.00000
     28      21.8815      0.00000
     29      22.1041      0.00000
     30      22.5832      0.00000
     31      23.0538      0.00000
     32      24.3400      0.00000
     33      25.1554      0.00000
     34      25.3727      0.00000
     35      25.6610      0.00000
     36      25.9183      0.00000
     37      26.3545      0.00000
     38      26.5134      0.00000
     39      26.6825      0.00000
     40      27.1518      0.00000
     41      27.7148      0.00000
     42      28.1259      0.00000
     43      29.1652      0.00000
     44      30.0071      0.00000
     45      30.5040      0.00000
     46      30.9808      0.00000
     47      31.4180      0.00000
     48      31.5529      0.00000
     49      31.8977      0.00000
     50      32.2273      0.00000
     51      32.8155      0.00000
     52      32.9882      0.00000
     53      33.9023      0.00000
     54      33.9499      0.00000
     55      34.3051      0.00000
     56      34.3490      0.00000
     57      34.8149      0.00000
     58      35.3306      0.00000
     59      35.4458      0.00000
     60      35.5579      0.00000
     61      35.9799      0.00000
     62      36.4950      0.00000
     63      36.8942      0.00000
     64      37.4648      0.00000
     65      37.9813      0.00000
     66      38.3248      0.00000
     67      38.6140      0.00000
     68      38.8482      0.00000
     69      39.4315      0.00000
     70      39.4863      0.00000
     71      40.0442      0.00000
     72      40.4749      0.00000
     73      40.8794      0.00000
     74      41.0141      0.00000
     75      41.3270      0.00000
     76      41.7977      0.00000
     77      42.2922      0.00000
     78      42.6626      0.00000
     79      43.2034      0.00000
     80      43.4639      0.00000
     81      43.7028      0.00000
     82      44.1587      0.00000
     83      44.7463      0.00000
     84      45.1552      0.00000
     85      45.8889      0.00000
     86      46.0328      0.00000
     87      46.3687      0.00000
     88      46.4493      0.00000
     89      46.5100      0.00000
     90      46.8776      0.00000
     91      47.1326      0.00000
     92      47.4409      0.00000
     93      47.8328      0.00000
     94      48.4593      0.00000
     95      49.0871      0.00000
     96      49.5474      0.00000
     97      50.1046      0.00000
     98      50.4803      0.00000
     99      50.6318      0.00000
    100      51.3474      0.00000
    101      51.7834      0.00000
    102      51.8066      0.00000
    103      52.5598      0.00000
    104      52.8634      0.00000
    105      53.2401      0.00000
    106      53.4113      0.00000
    107      54.0072      0.00000
    108      54.3872      0.00000
    109      54.6905      0.00000
    110      54.9178      0.00000
    111      55.6943      0.00000
    112      56.1009      0.00000
    113      56.3687      0.00000
    114      56.9083      0.00000
    115      57.3046      0.00000
    116      57.7552      0.00000
    117      57.9481      0.00000
    118      58.5368      0.00000
    119      59.1058      0.00000
    120      59.3070      0.00000
    121      59.5857      0.00000
    122      60.1573      0.00000
    123      60.2377      0.00000
    124      60.8144      0.00000
    125      61.3379      0.00000
    126      61.4196      0.00000
    127      61.8420      0.00000
    128      62.3629      0.00000

 k-point     3 :       0.0000    0.2000    0.0000
  band No.  band energies     occupation 
      1      -7.1796      1.00000
      2      -4.1028      1.00000
      3      -3.9238      1.00000
      4       1.9403      1.00000
      5       2.7402      1.00000
      6       3.2565      1.00000
      7       5.3133      1.00000
      8       5.5634      1.00000
      9       5.7137      1.00000
     10       7.3481      0.00000
     11       7.5422      0.00000
     12       8.1770      0.00000
     13      10.4063      0.00000
     14      11.5054      0.00000
     15      12.7076      0.00000
     16      13.2268      0.00000
     17      13.8339      0.00000
     18      14.0957      0.00000
     19      14.4598      0.00000
     20      15.0532      0.00000
     21      16.1888      0.00000
     22      17.5140      0.00000
     23      18.0029      0.00000
     24      19.3381      0.00000
     25      19.6459      0.00000
     26      21.0787      0.00000
     27      21.4285      0.00000
     28      21.8813      0.00000
     29      22.1037      0.00000
     30      22.5833      0.00000
     31      23.0543      0.00000
     32      24.3405      0.00000
     33      25.1549      0.00000
     34      25.3727      0.00000
     35      25.6605      0.00000
     36      25.9183      0.00000
     37      26.3548      0.00000
     38      26.5134      0.00000
     39      26.6823      0.00000
     40      27.1520      0.00000
     41      27.7150      0.00000
     42      28.1255      0.00000
     43      29.1656      0.00000
     44      30.0071      0.00000
     45      30.5041      0.00000
     46      30.9806      0.00000
     47      31.4181      0.00000
     48      31.5528      0.00000
     49      31.8976      0.00000
     50      32.2276      0.00000
     51      32.8156      0.00000
     52      32.9881      0.00000
     53      33.9021      0.00000
     54      33.9495      0.00000
     55      34.3052      0.00000
     56      34.3491      0.00000
     57      34.8149      0.00000
     58      35.3309      0.00000
     59      35.4458      0.00000
     60      35.5581      0.00000
     61      35.9798      0.00000
     62      36.4952      0.00000
     63      36.8945      0.00000
     64      37.4649      0.00000
     65      37.9819      0.00000
     66      38.3244      0.00000
     67      38.6135      0.00000
     68      38.8480      0.00000
     69      39.4309      0.00000
     70      39.4862      0.00000
     71      40.0441      0.00000
     72      40.4747      0.00000
     73      40.8797      0.00000
     74      41.0138      0.00000
     75      41.3268      0.00000
     76      41.7969      0.00000
     77      42.2925      0.00000
     78      42.6632      0.00000
     79      43.2040      0.00000
     80      43.4644      0.00000
     81      43.7030      0.00000
     82      44.1582      0.00000
     83      44.7468      0.00000
     84      45.1555      0.00000
     85      45.8896      0.00000
     86      46.0322      0.00000
     87      46.3685      0.00000
     88      46.4484      0.00000
     89      46.5105      0.00000
     90      46.8777      0.00000
     91      47.1329      0.00000
     92      47.4411      0.00000
     93      47.8328      0.00000
     94      48.4588      0.00000
     95      49.0870      0.00000
     96      49.5478      0.00000
     97      50.1043      0.00000
     98      50.4804      0.00000
     99      50.6317      0.00000
    100      51.3475      0.00000
    101      51.7832      0.00000
    102      51.8064      0.00000
    103      52.5595      0.00000
    104      52.8632      0.00000
    105      53.2403      0.00000
    106      53.4114      0.00000
    107      54.0074      0.00000
    108      54.3875      0.00000
    109      54.6917      0.00000
    110      54.9177      0.00000
    111      55.6945      0.00000
    112      56.1006      0.00000
    113      56.3687      0.00000
    114      56.9079      0.00000
    115      57.3053      0.00000
    116      57.7551      0.00000
    117      57.9466      0.00000
    118      58.5370      0.00000
    119      59.1060      0.00000
    120      59.3065      0.00000
    121      59.5854      0.00000
    122      60.1575      0.00000
    123      60.2386      0.00000
    124      60.8145      0.00000
    125      61.3379      0.00000
    126      61.4194      0.00000
    127      61.8417      0.00000
    128      62.3631      0.00000

 k-point     4 :      -0.2000    0.2000    0.0000
  band No.  band energies     occupation 
      1      -7.1795      1.00000
      2      -4.1002      1.00000
      3      -3.9268      1.00000
      4       1.9373      1.00000
      5       2.7425      1.00000
      6       3.2574      1.00000
      7       5.3149      1.00000
      8       5.5641      1.00000
      9       5.7135      1.00000
     10       7.3458      0.00000
     11       7.5424      0.00000
     12       8.1783      0.00000
     13      10.4044      0.00000
     14      11.5034      0.00000
     15      12.7070      0.00000
     16      13.2294      0.00000
     17      13.8336      0.00000
     18      14.0975      0.00000
     19      14.4601      0.00000
     20      15.0528      0.00000
     21      16.1883      0.00000
     22      17.5139      0.00000
     23      18.0028      0.00000
     24      19.3373      0.00000
     25      19.6474      0.00000
     26      21.0785      0.00000
     27      21.4280      0.00000
     28      21.8797      0.00000
     29      22.1024      0.00000
     30      22.5844      0.00000
     31      23.0565      0.00000
     32      24.3422      0.00000
     33      25.1516      0.00000
     34      25.3739      0.00000
     35      25.6545      0.00000
     36      25.9175      0.00000
     37      26.3564      0.00000
     38      26.5138      0.00000
     39      26.6820      0.00000
     40      27.1543      0.00000
     41      27.7158      0.00000
     42      28.1267      0.00000
     43      29.1692      0.00000
     44      30.0094      0.00000
     45      30.5057      0.00000
     46      30.9777      0.00000
     47      31.4175      0.00000
     48      31.5501      0.00000
     49      31.8961      0.00000
     50      32.2302      0.00000
     51      32.8146      0.00000
     52      32.9860      0.00000
     53      33.9011      0.00000
     54      33.9477      0.00000
     55      34.3069      0.00000
     56      34.3505      0.00000
     57      34.8167      0.00000
     58      35.3331      0.00000
     59      35.4457      0.00000
     60      35.5569      0.00000
     61      35.9782      0.00000
     62      36.4974      0.00000
     63      36.8965      0.00000
     64      37.4649      0.00000
     65      37.9848      0.00000
     66      38.3234      0.00000
     67      38.6127      0.00000
     68      38.8433      0.00000
     69      39.4292      0.00000
     70      39.4857      0.00000
     71      40.0438      0.00000
     72      40.4748      0.00000
     73      40.8782      0.00000
     74      41.0157      0.00000
     75      41.3239      0.00000
     76      41.7960      0.00000
     77      42.2938      0.00000
     78      42.6634      0.00000
     79      43.2043      0.00000
     80      43.4658      0.00000
     81      43.7047      0.00000
     82      44.1561      0.00000
     83      44.7489      0.00000
     84      45.1549      0.00000
     85      45.8958      0.00000
     86      46.0271      0.00000
     87      46.3677      0.00000
     88      46.4517      0.00000
     89      46.5101      0.00000
     90      46.8800      0.00000
     91      47.1320      0.00000
     92      47.4420      0.00000
     93      47.8333      0.00000
     94      48.4580      0.00000
     95      49.0839      0.00000
     96      49.5467      0.00000
     97      50.1039      0.00000
     98      50.4794      0.00000
     99      50.6302      0.00000
    100      51.3487      0.00000
    101      51.7818      0.00000
    102      51.8047      0.00000
    103      52.5594      0.00000
    104      52.8584      0.00000
    105      53.2424      0.00000
    106      53.4108      0.00000
    107      54.0108      0.00000
    108      54.3892      0.00000
    109      54.6935      0.00000
    110      54.9166      0.00000
    111      55.6943      0.00000
    112      56.0987      0.00000
    113      56.3684      0.00000
    114      56.9031      0.00000
    115      57.3099      0.00000
    116      57.7534      0.00000
    117      57.9405      0.00000
    118      58.5412      0.00000
    119      59.1089      0.00000
    120      59.3040      0.00000
    121      59.5862      0.00000
    122      60.1600      0.00000
    123      60.2447      0.00000
    124      60.8161      0.00000
    125      61.3381      0.00000
    126      61.4236      0.00000
    127      61.8413      0.00000
    128      62.3618      0.00000

 k-point     5 :       0.4000    0.0000    0.0000
  band No.  band energies     occupation 
      1      -6.4553      1.00000
      2      -4.5762      1.00000
      3      -3.6980      1.00000
      4       1.2532      1.00000
      5       1.8552      1.00000
      6       2.6648      1.00000
      7       3.2703      1.00000
      8       5.4887      1.00000
      9       5.7060      1.00000
     10       7.2921      0.00000
     11       7.4354      0.00000
     12       9.2970      0.00000
     13       9.9889      0.00000
     14      13.3483      0.00000
     15      14.4715      0.00000
     16      14.7365      0.00000
     17      15.4218      0.00000
     18      16.2057      0.00000
     19      16.8868      0.00000
     20      17.1553      0.00000
     21      17.4473      0.00000
     22      17.8138      0.00000
     23      18.0270      0.00000
     24      18.6167      0.00000
     25      19.5095      0.00000
     26      20.2532      0.00000
     27      20.6206      0.00000
     28      20.9087      0.00000
     29      21.1824      0.00000
     30      21.3181      0.00000
     31      22.0529      0.00000
     32      22.5524      0.00000
     33      22.8158      0.00000
     34      23.0341      0.00000
     35      23.1911      0.00000
     36      25.7774      0.00000
     37      26.3525      0.00000
     38      27.0038      0.00000
     39      27.6644      0.00000
     40      28.0411      0.00000
     41      28.2802      0.00000
     42      28.6260      0.00000
     43      28.8092      0.00000
     44      28.9328      0.00000
     45      29.6202      0.00000
     46      29.7257      0.00000
     47      30.3542      0.00000
     48      31.1469      0.00000
     49      31.5644      0.00000
     50      31.7868      0.00000
     51      31.9918      0.00000
     52      32.5463      0.00000
     53      32.8359      0.00000
     54      33.2830      0.00000
     55      33.9055      0.00000
     56      34.5478      0.00000
     57      34.7430      0.00000
     58      35.3324      0.00000
     59      35.4794      0.00000
     60      36.2500      0.00000
     61      36.4963      0.00000
     62      36.7019      0.00000
     63      37.2295      0.00000
     64      37.3264      0.00000
     65      38.0702      0.00000
     66      38.1789      0.00000
     67      38.3546      0.00000
     68      38.7501      0.00000
     69      39.1754      0.00000
     70      39.7082      0.00000
     71      39.8056      0.00000
     72      40.1281      0.00000
     73      40.6738      0.00000
     74      41.7441      0.00000
     75      42.0665      0.00000
     76      42.5511      0.00000
     77      43.0049      0.00000
     78      43.1742      0.00000
     79      43.9753      0.00000
     80      44.0444      0.00000
     81      44.5841      0.00000
     82      44.9977      0.00000
     83      45.5985      0.00000
     84      45.7493      0.00000
     85      46.4143      0.00000
     86      46.7395      0.00000
     87      46.7703      0.00000
     88      47.4631      0.00000
     89      47.5930      0.00000
     90      48.0204      0.00000
     91      48.3590      0.00000
     92      48.7785      0.00000
     93      48.9155      0.00000
     94      49.3068      0.00000
     95      49.6789      0.00000
     96      49.8613      0.00000
     97      50.6746      0.00000
     98      50.9352      0.00000
     99      51.3336      0.00000
    100      51.5136      0.00000
    101      51.8307      0.00000
    102      52.0522      0.00000
    103      52.7810      0.00000
    104      53.0959      0.00000
    105      53.4606      0.00000
    106      53.6440      0.00000
    107      54.6604      0.00000
    108      54.7983      0.00000
    109      55.1004      0.00000
    110      55.4302      0.00000
    111      55.8415      0.00000
    112      55.8860      0.00000
    113      56.2718      0.00000
[...]
     38      25.2681      0.00000
     39      26.1218      0.00000
     40      26.3010      0.00000
     41      27.1388      0.00000
     42      27.4035      0.00000
     43      27.6391      0.00000
     44      28.2606      0.00000
     45      28.6108      0.00000
     46      28.9322      0.00000
     47      29.5550      0.00000
     48      30.0431      0.00000
     49      30.4032      0.00000
     50      31.1279      0.00000
     51      31.4584      0.00000
     52      32.2662      0.00000
     53      32.6953      0.00000
     54      33.1834      0.00000
     55      33.5507      0.00000
     56      33.8239      0.00000
     57      34.1285      0.00000
     58      34.9849      0.00000
     59      35.4415      0.00000
     60      36.0340      0.00000
     61      36.3878      0.00000
     62      36.7445      0.00000
     63      37.4671      0.00000
     64      37.7789      0.00000
     65      37.9660      0.00000
     66      38.6834      0.00000
     67      39.0962      0.00000
     68      39.3249      0.00000
     69      39.7433      0.00000
     70      40.1702      0.00000
     71      40.5769      0.00000
     72      41.0282      0.00000
     73      41.3913      0.00000
     74      41.6390      0.00000
     75      42.3369      0.00000
     76      42.5575      0.00000
     77      43.1209      0.00000
     78      43.4096      0.00000
     79      43.6425      0.00000
     80      43.9570      0.00000
     81      44.7188      0.00000
     82      45.0419      0.00000
     83      45.5155      0.00000
     84      45.7892      0.00000
     85      45.9942      0.00000
     86      46.1715      0.00000
     87      46.6350      0.00000
     88      46.8884      0.00000
     89      47.4119      0.00000
     90      47.6071      0.00000
     91      48.0855      0.00000
     92      48.3564      0.00000
     93      48.6237      0.00000
     94      49.0970      0.00000
     95      49.2220      0.00000
     96      49.6864      0.00000
     97      49.8679      0.00000
     98      50.4479      0.00000
     99      50.9428      0.00000
    100      51.3160      0.00000
    101      51.6299      0.00000
    102      52.0529      0.00000
    103      52.4456      0.00000
    104      52.7945      0.00000
    105      52.9390      0.00000
    106      53.2359      0.00000
    107      53.8098      0.00000
    108      54.2137      0.00000
    109      54.5746      0.00000
    110      55.0728      0.00000
    111      55.4936      0.00000
    112      55.7184      0.00000
    113      55.9252      0.00000
    114      56.3375      0.00000
    115      56.8933      0.00000
    116      57.3318      0.00000
    117      57.4882      0.00000
    118      57.9487      0.00000
    119      58.3192      0.00000
    120      58.4584      0.00000
    121      59.0292      0.00000
    122      59.5738      0.00000
    123      59.7496      0.00000
    124      59.8950      0.00000
    125      60.2842      0.00000
    126      60.6490      0.00000
    127      60.9538      0.00000
    128      61.0893      0.00000

 k-point    38 :      -0.4000   -0.4000    0.3333
  band No.  band energies     occupation 
      1      -5.7435      1.00000
      2      -5.0795      1.00000
      3      -3.9874      1.00000
      4       0.8107      1.00000
      5       1.3689      1.00000
      6       2.1063      1.00000
      7       4.0838      1.00000
      8       5.1277      1.00000
      9       6.1000      0.99722
     10       7.1082      0.00001
     11       8.2292      0.00000
     12       8.8789      0.00000
     13      10.7218      0.00000
     14      12.5810      0.00000
     15      13.4932      0.00000
     16      13.7388      0.00000
     17      14.9679      0.00000
     18      15.3671      0.00000
     19      15.8835      0.00000
     20      17.4333      0.00000
     21      17.7840      0.00000
     22      18.3356      0.00000
     23      18.7588      0.00000
     24      19.2423      0.00000
     25      19.6387      0.00000
     26      20.9015      0.00000
     27      21.1038      0.00000
     28      21.5769      0.00000
     29      21.8026      0.00000
     30      22.3907      0.00000
     31      22.6633      0.00000
     32      23.0400      0.00000
     33      23.4922      0.00000
     34      23.8092      0.00000
     35      24.2184      0.00000
     36      24.4497      0.00000
     37      24.7306      0.00000
     38      25.2680      0.00000
     39      26.1215      0.00000
     40      26.3002      0.00000
     41      27.1378      0.00000
     42      27.4034      0.00000
     43      27.6383      0.00000
     44      28.2611      0.00000
     45      28.6114      0.00000
     46      28.9335      0.00000
     47      29.5551      0.00000
     48      30.0423      0.00000
     49      30.4023      0.00000
     50      31.1279      0.00000
     51      31.4586      0.00000
     52      32.2662      0.00000
     53      32.6963      0.00000
     54      33.1840      0.00000
     55      33.5508      0.00000
     56      33.8238      0.00000
     57      34.1285      0.00000
     58      34.9842      0.00000
     59      35.4422      0.00000
     60      36.0330      0.00000
     61      36.3870      0.00000
     62      36.7433      0.00000
     63      37.4660      0.00000
     64      37.7784      0.00000
     65      37.9656      0.00000
     66      38.6835      0.00000
     67      39.0963      0.00000
     68      39.3253      0.00000
     69      39.7430      0.00000
     70      40.1700      0.00000
     71      40.5778      0.00000
     72      41.0280      0.00000
     73      41.3927      0.00000
     74      41.6386      0.00000
     75      42.3366      0.00000
     76      42.5579      0.00000
     77      43.1200      0.00000
     78      43.4098      0.00000
     79      43.6428      0.00000
     80      43.9576      0.00000
     81      44.7188      0.00000
     82      45.0422      0.00000
     83      45.5158      0.00000
     84      45.7895      0.00000
     85      45.9944      0.00000
     86      46.1717      0.00000
     87      46.6351      0.00000
     88      46.8874      0.00000
     89      47.4126      0.00000
     90      47.6081      0.00000
     91      48.0850      0.00000
     92      48.3567      0.00000
     93      48.6247      0.00000
     94      49.0974      0.00000
     95      49.2221      0.00000
     96      49.6872      0.00000
     97      49.8682      0.00000
     98      50.4484      0.00000
     99      50.9430      0.00000
    100      51.3157      0.00000
    101      51.6302      0.00000
    102      52.0527      0.00000
    103      52.4464      0.00000
    104      52.7950      0.00000
    105      52.9382      0.00000
    106      53.2357      0.00000
    107      53.8100      0.00000
    108      54.2131      0.00000
    109      54.5739      0.00000
    110      55.0715      0.00000
    111      55.4939      0.00000
    112      55.7184      0.00000
    113      55.9255      0.00000
    114      56.3374      0.00000
    115      56.8931      0.00000
    116      57.3322      0.00000
    117      57.4882      0.00000
    118      57.9496      0.00000
    119      58.3199      0.00000
    120      58.4579      0.00000
    121      59.0289      0.00000
    122      59.5729      0.00000
    123      59.7491      0.00000
    124      59.8934      0.00000
    125      60.2838      0.00000
    126      60.6491      0.00000
    127      60.9535      0.00000
    128      61.0902      0.00000


--------------------------------------------------------------------------------------------------------


 soft charge-density along one line, spin component           1
         0         1         2         3         4         5         6         7         8         9
 total charge-density along one line

 soft charge-density along one line, spin component           2
         0         1         2         3         4         5         6         7         8         9
 total charge-density along one line

 pseudopotential strength for first ion, spin component:           1
 51.179  55.683  -0.000  -0.000  -0.045  -0.000  -0.000  -0.065
 55.683  60.586  -0.000  -0.000  -0.048  -0.000  -0.000  -0.070
 -0.000  -0.000  12.559   0.011   0.000  18.104   0.016   0.000
 -0.000  -0.000   0.011  12.577  -0.000   0.016  18.130  -0.000
 -0.045  -0.048   0.000  -0.000  12.576   0.000  -0.000  18.129
 -0.000  -0.000  18.104   0.016   0.000  26.107   0.023   0.000
 -0.000  -0.000   0.016  18.130  -0.000   0.023  26.144  -0.000
 -0.065  -0.070   0.000  -0.000  18.129   0.000  -0.000  26.143
  0.000   0.000  -0.008   0.001  -0.000  -0.012   0.001  -0.000
  0.017   0.018  -0.000  -0.000   0.001  -0.000  -0.000   0.001
  0.008   0.009   0.000  -0.000   0.006   0.000  -0.000   0.008
 -0.000  -0.000   0.001  -0.007  -0.000   0.001  -0.010  -0.000
  0.013   0.014   0.000  -0.000  -0.008   0.000  -0.000  -0.012
 pseudopotential strength for first ion, spin component:           2
 51.179  55.683  -0.000  -0.000  -0.045  -0.000  -0.000  -0.065
 55.683  60.586  -0.000  -0.000  -0.048  -0.000  -0.000  -0.070
 -0.000  -0.000  12.559   0.011   0.000  18.104   0.016   0.000
 -0.000  -0.000   0.011  12.577  -0.000   0.016  18.130  -0.000
 -0.045  -0.048   0.000  -0.000  12.576   0.000  -0.000  18.129
 -0.000  -0.000  18.104   0.016   0.000  26.107   0.023   0.000
 -0.000  -0.000   0.016  18.130  -0.000   0.023  26.144  -0.000
 -0.065  -0.070   0.000  -0.000  18.129   0.000  -0.000  26.143
  0.000   0.000  -0.008   0.001  -0.000  -0.012   0.001  -0.000
  0.017   0.018  -0.000  -0.000   0.001  -0.000  -0.000   0.001
  0.008   0.009   0.000  -0.000   0.006   0.000  -0.000   0.008
 -0.000  -0.000   0.001  -0.007  -0.000   0.001  -0.010  -0.000
  0.013   0.014   0.000  -0.000  -0.008   0.000  -0.000  -0.012
 total augmentation occupancy for first ion, spin component:           1
 15.064 -11.141   0.000   0.001   1.774  -0.000  -0.000  -0.418  -0.000  -0.160  -0.101  -0.000  -0.119
-11.141   9.498  -0.000  -0.001  -1.515   0.000   0.000   0.373   0.000   0.143   0.089   0.000   0.105
  0.000  -0.000   2.501   0.199   0.000  -0.501  -0.165  -0.000  -0.045  -0.000   0.000  -0.044  -0.000
  0.001  -0.001   0.199   2.846   0.000  -0.165  -0.783  -0.000  -0.043  -0.000  -0.000  -0.101  -0.000
  1.774  -1.515   0.000   0.000   2.747  -0.000  -0.000  -0.724  -0.000  -0.048  -0.012  -0.000  -0.045
 -0.000   0.000  -0.501  -0.165  -0.000   0.195   0.057   0.000   0.010   0.000   0.000   0.016   0.000
 -0.000   0.000  -0.165  -0.783  -0.000   0.057   0.293   0.000   0.016   0.000   0.000   0.028   0.000
 -0.418   0.373  -0.000  -0.000  -0.724   0.000   0.000   0.263   0.000   0.014   0.003   0.000   0.010
 -0.000   0.000  -0.045  -0.043  -0.000   0.010   0.016   0.000   0.011   0.000  -0.000   0.012   0.000
 -0.160   0.143  -0.000  -0.000  -0.048   0.000   0.000   0.014   0.000   0.016   0.003   0.000   0.005
 -0.101   0.089   0.000  -0.000  -0.012   0.000   0.000   0.003  -0.000   0.003   0.008   0.000  -0.000
 -0.000   0.000  -0.044  -0.101  -0.000   0.016   0.028   0.000   0.012   0.000   0.000   0.029   0.000
 -0.119   0.105  -0.000  -0.000  -0.045   0.000   0.000   0.010   0.000   0.005  -0.000   0.000   0.011
 total augmentation occupancy for first ion, spin component:           2
 -0.000   0.000  -0.000  -0.000   0.000   0.000   0.000  -0.000   0.000   0.000   0.000   0.000   0.000
  0.000  -0.000   0.000   0.000  -0.000  -0.000  -0.000   0.000  -0.000  -0.000  -0.000  -0.000  -0.000
 -0.000   0.000   0.000  -0.000  -0.000  -0.000  -0.000   0.000  -0.000   0.000   0.000  -0.000   0.000
 -0.000   0.000  -0.000   0.000  -0.000  -0.000  -0.000   0.000  -0.000   0.000   0.000  -0.000   0.000
  0.000  -0.000  -0.000  -0.000   0.000   0.000   0.000  -0.000   0.000  -0.000  -0.000   0.000  -0.000
  0.000  -0.000  -0.000  -0.000   0.000   0.000   0.000  -0.000   0.000  -0.000  -0.000   0.000  -0.000
  0.000  -0.000  -0.000  -0.000   0.000   0.000   0.000  -0.000   0.000  -0.000  -0.000   0.000  -0.000
 -0.000   0.000   0.000   0.000  -0.000  -0.000  -0.000   0.000  -0.000   0.000   0.000  -0.000   0.000
  0.000  -0.000  -0.000  -0.000   0.000   0.000   0.000  -0.000  -0.000   0.000  -0.000  -0.000   0.000
  0.000  -0.000   0.000   0.000  -0.000  -0.000  -0.000   0.000   0.000  -0.000  -0.000   0.000  -0.000
  0.000  -0.000   0.000   0.000  -0.000  -0.000  -0.000   0.000  -0.000  -0.000  -0.000  -0.000   0.000
  0.000  -0.000  -0.000  -0.000   0.000   0.000   0.000  -0.000  -0.000   0.000  -0.000  -0.000   0.000
  0.000  -0.000   0.000   0.000  -0.000  -0.000  -0.000   0.000   0.000  -0.000   0.000   0.000  -0.000


------------------------ aborting loop because EDIFF is reached ----------------------------------------





 total charge

# of ion       s       p       d       tot
------------------------------------------
    1        1.439   1.801   0.046   3.286
    2        1.439   1.801   0.046   3.286
    3        1.439   1.801   0.046   3.286
--------------------------------------------------
tot          4.316   5.404   0.138   9.858



 magnetization (x)

# of ion       s       p       d       tot
------------------------------------------
    1       -0.000  -0.000   0.000  -0.000
    2       -0.000  -0.000   0.000  -0.000
    3       -0.000  -0.000   0.000  -0.000
--------------------------------------------------
tot         -0.000  -0.000   0.000  -0.000

    CHARGE:  cpu time      0.0213: real time      0.0215
    FORLOC:  cpu time      0.0000: real time      0.0000
    FORNL :  cpu time      0.0479: real time      0.0482
    STRESS:  cpu time      0.1242: real time      0.1248
    FORCOR:  cpu time      0.0518: real time      0.0520
    FORHAR:  cpu time      0.0069: real time      0.0069
    MIXING:  cpu time      0.0004: real time      0.0004
    OFIELD:  cpu time      0.0000: real time      0.0000

  FORCE on cell =-STRESS in cart. coord.  units (eV):
  Direction    XX          YY          ZZ          XY          YZ          ZX
  --------------------------------------------------------------------------------------
  Alpha Z     2.40823     2.40823     2.40823
  Ewald    -240.23069  -240.21683  -208.37420     0.02476    -0.00583     0.01851
  Hartree    10.26479    10.26742    17.79582     0.00577    -0.00091     0.00399
  E(xc)     -69.65358   -69.65369   -69.40264    -0.00010     0.00012    -0.00029
  Local    -108.10120  -108.11694  -139.73140    -0.02866     0.00692    -0.02345
  n-local   330.84176   330.84259   327.16387     0.00166    -0.00137     0.00333
  augment   -81.34730   -81.34714   -79.39339     0.00038     0.00019    -0.00056
  Kinetic   155.79474   155.79388   149.67630    -0.00140    -0.00058     0.00241
  Fock        0.00000     0.00000     0.00000     0.00000     0.00000     0.00000
  -------------------------------------------------------------------------------------
  Total      -0.02326    -0.02248     0.14258     0.00241    -0.00146     0.00393
  in kB      -0.38386    -0.37101     2.35345     0.03971    -0.02411     0.06487
  external pressure =        0.53 kB  Pullay stress =        0.00 kB


 VOLUME and BASIS-vectors are now :
 -----------------------------------------------------------------------------
  energy-cutoff  :      300.00
  volume of cell :       97.06
      direct lattice vectors                 reciprocal lattice vectors
     4.356840354  0.000003154 -0.000189695     0.229524036  0.132512916  0.000008668
    -2.178417434  3.773210771  0.000155296    -0.000000192  0.265026166 -0.000004734
    -0.000283872  0.000105477  5.904400468     0.000007374 -0.000002713  0.169365206

  length of vectors
     4.356840358  4.356905101  5.904400476     0.265030104  0.265026166  0.169365206


 FORCES acting on ions
    electron-ion (+dipol)            ewald-force                    non-local-force                 convergence-correction
 -----------------------------------------------------------------------------------------------
   -.895E+01 -.254E-02 -.162E-01   0.130E+02 0.216E-02 0.184E-01   -.405E+01 0.300E-03 -.683E-03   -.273E-03 -.352E-05 -.806E-04
   0.447E+01 -.775E+01 0.143E-01   -.652E+01 0.113E+02 -.161E-01   0.202E+01 -.351E+01 0.632E-03   0.134E-03 -.238E-03 0.750E-04
   0.448E+01 0.775E+01 0.198E-02   -.652E+01 -.113E+02 -.225E-02   0.202E+01 0.351E+01 0.234E-04   0.134E-03 0.231E-03 0.564E-05
 -----------------------------------------------------------------------------------------------
   -.124E-03 -.550E-03 0.318E-05   0.000E+00 -.178E-14 0.134E-16   0.152E-03 0.719E-03 -.280E-04   -.521E-05 -.105E-04 0.122E-07


 POSITION                                       TOTAL-FORCE (eV/Angst)
 -----------------------------------------------------------------------------------
      1.22782      0.00009      1.96793         0.038831     -0.000133      0.001368
     -0.61410      1.06345      3.93644        -0.019443      0.034041     -0.001144
      1.56442      2.70978     -0.00000        -0.019388     -0.033908     -0.000224
 -----------------------------------------------------------------------------------
    total drift:                                0.000023      0.000159     -0.000025


--------------------------------------------------------------------------------------------------------



  FREE ENERGIE OF THE ION-ELECTRON SYSTEM (eV)
  ---------------------------------------------------
  free  energy   TOTEN  =       -10.57320863 eV

  energy  without entropy=      -10.57248318  energy(sigma->0) =      -10.57284590

 d Force = 0.7645427E-02[ 0.353E-02, 0.118E-01]  d Energy = 0.9257147E-02-0.161E-02
 d Force = 0.1236774E+01[ 0.118E+01, 0.130E+01]  d Ewald  = 0.3624767E+01-0.239E+01


--------------------------------------------------------------------------------------------------------


    POTLOK:  cpu time      0.7370: real time      0.7393


--------------------------------------------------------------------------------------------------------




--------------------------------------------------------------------------------------------------------


  
 reached required accuracy - stopping structural energy minimisation
     LOOP+:  cpu time    348.8019: real time    350.4390
    4ORBIT:  cpu time      0.0000: real time      0.0000



 total charge

# of ion       s       p       d       tot
------------------------------------------
    1        1.439   1.801   0.046   3.286
    2        1.439   1.801   0.046   3.286
    3        1.439   1.801   0.046   3.286
--------------------------------------------------
tot          4.316   5.404   0.138   9.858



 magnetization (x)

# of ion       s       p       d       tot
------------------------------------------
    1       -0.000  -0.000   0.000  -0.000
    2       -0.000  -0.000   0.000  -0.000
    3       -0.000  -0.000   0.000  -0.000
--------------------------------------------------
tot         -0.000  -0.000   0.000  -0.000


 total amount of memory used by VASP MPI-rank0    32265. kBytes
=======================================================================

   base      :      30000. kBytes
   nonlr-proj:        565. kBytes
   fftplans  :        389. kBytes
   grid      :        673. kBytes
   one-center:         16. kBytes
   wavefun   :        622. kBytes

  
  
 General timing and accounting informations for this job:
 ========================================================
  
                  Total CPU time used (sec):     2202.634
                            User time (sec):     2201.863
                          System time (sec):        0.770
                         Elapsed time (sec):     2216.275
  
                   Maximum memory used (kb):      175816.
                   Average memory used (kb):          N/A
  
                          Minor page faults:       255641
                          Major page faults:          402
                 Voluntary context switches:         6410
