unknown system                          
   1.0000000000000000     
     2.941312    0.000000    0.000000
    -1.470656    2.547251    0.000000
    -0.000000    0.000000    5.621451
   Cd
     2
Direct
  0.666667  0.333333  0.750000
  0.333333  0.666667  0.250000

   32   32   72
 0.59336786490E+01 0.59177502404E+01 0.58698811256E+01 0.57907123772E+01 0.56817232485E+01
 0.55453815537E+01 0.53838861033E+01 0.52026265516E+01 0.50049007446E+01 0.48005710432E+01
 0.45962350466E+01 0.43985465055E+01 0.42211480648E+01 0.40703927311E+01 0.39564782453E+01
 0.38865152947E+01 0.38628087880E+01 0.38865152947E+01 0.39564782453E+01 0.40703927311E+01
 0.42211480648E+01 0.43985465055E+01 0.45962350466E+01 0.48005710432E+01 0.50049007446E+01
 0.52026265516E+01 0.53838861033E+01 0.55453815537E+01 0.56817232485E+01 0.57907123772E+01
 0.58698811256E+01 0.59177502404E+01 0.59177502404E+01 0.59177168977E+01 0.58856024647E+01
 0.58223806760E+01 0.57283867586E+01 0.56054261122E+01 0.54561098533E+01 0.52837492449E+01
 0.50940525419E+01 0.48916307024E+01 0.46839394048E+01 0.44832780038E+01 0.42931495224E+01
 0.41274722576E+01 0.39958524191E+01 0.39004613530E+01 0.38507596019E+01 0.38506880042E+01
 0.39002403568E+01 0.39952343124E+01 0.41286489025E+01 0.42940794886E+01 0.44814698464E+01
 0.46847454862E+01 0.48922269148E+01 0.50931638533E+01 0.52840780101E+01 0.54559213491E+01
 0.56055177786E+01 0.57283024312E+01 0.58221749171E+01 0.58857093606E+01 0.58698811256E+01
 0.58856024647E+01 0.58700811955E+01 0.58219884248E+01 0.57436201549E+01 0.56349708917E+01
 0.54990128921E+01 0.53375514749E+01 0.51552100068E+01 0.49573196553E+01 0.47520875491E+01
 0.45431461126E+01 0.43446823915E+01 0.41677323210E+01 0.40097602167E+01 0.38923873104E+01
 0.38213967198E+01 0.37974085653E+01 0.38217162343E+01 0.38930415773E+01 0.40100102104E+01
 0.41641757101E+01 0.43467628279E+01 0.45438923008E+01 0.47502572775E+01 0.49582010154E+01
 0.51552676783E+01 0.53377537211E+01 0.54988795076E+01 0.56351066174E+01 0.57438270917E+01
 0.58221749171E+01 0.57907123772E+01 0.58223806760E+01 0.58219884248E+01 0.57909886135E+01
 0.57283645032E+01 0.56355234797E+01 0.55135542346E+01 0.53646581859E+01 0.51929794229E+01
 0.50009119385E+01 0.47967118823E+01 0.45858561057E+01 0.43836427302E+01 0.41828491640E+01
 0.40125844587E+01 0.38829046785E+01 0.37869475906E+01 0.37372821995E+01 0.37362324299E+01
 0.37872078418E+01 0.38811169794E+01 0.40159058974E+01 0.41838135897E+01 0.43808344769E+01
 0.45878685880E+01 0.47960662184E+01 0.50012679286E+01 0.51923360331E+01 0.53647113894E+01
 0.55135952068E+01 0.56351066174E+01 0.57283024312E+01 0.56817232485E+01 0.57283867586E+01
 0.57436201549E+01 0.57283645032E+01 0.56814340672E+01 0.56053794476E+01 0.54984165362E+01
 0.53649598262E+01 0.52033788970E+01 0.50229098959E+01 0.48224203738E+01 0.46144970134E+01
 0.44010391222E+01 0.41935334295E+01 0.40179925009E+01 0.38571887053E+01 0.37296334408E+01
 0.36487607690E+01 0.36223596868E+01 0.36491941356E+01 0.37305304263E+01 0.38563890812E+01
 0.40148794664E+01 0.41955904710E+01 0.44002064119E+01 0.46148168258E+01 0.48222689948E+01
 0.50226833821E+01 0.52041005771E+01 0.53647113894E+01 0.54988795076E+01 0.56055177786E+01
 0.55453815537E+01 0.56054261122E+01 0.56349708917E+01 0.56355234797E+01 0.56053794476E+01
 0.55458904830E+01 0.54559595768E+01 0.53382549735E+01 0.51925086680E+01 0.50229401121E+01
 0.48304639615E+01 0.46277031467E+01 0.44115704911E+01 0.42015214491E+01 0.40078743927E+01
 0.38205114217E+01 0.36715782372E+01 0.35712540608E+01 0.35208778987E+01 0.35208840175E+01
 0.35703196169E+01 0.36718981255E+01 0.38227419696E+01 0.40075044668E+01 0.42022777119E+01
 0.44110902908E+01 0.46274000139E+01 0.48310820128E+01 0.50226833821E+01 0.51923360331E+01
 0.53377537211E+01 0.54559213491E+01 0.53838861033E+01 0.54561098533E+01 0.54990128921E+01
 0.55135542346E+01 0.54984165362E+01 0.54559595768E+01 0.53834354105E+01 0.52840084193E+01
 0.51542927346E+01 0.50017396301E+01 0.48221812150E+01 0.46279921102E+01 0.44134771474E+01
 0.42047981106E+01 0.39997258431E+01 0.37941108259E+01 0.36327457281E+01 0.35130932519E+01
 0.34401218827E+01 0.34133275890E+01 0.34406642205E+01 0.35131668100E+01 0.36308885386E+01
 0.37944689851E+01 0.39985714633E+01 0.42044470938E+01 0.44145660546E+01 0.46274000139E+01
 0.48222689948E+01 0.50012679286E+01 0.51552676783E+01 0.52840780101E+01 0.52026265516E+01
 0.52837492449E+01 0.53375514749E+01 0.53646581859E+01 0.53649598262E+01 0.53382549735E+01
 0.52840084193E+01 0.52029591653E+01 0.50938914672E+01 0.49582992571E+01 0.47955798490E+01
 0.46147269073E+01 0.44113976158E+01 0.42047742549E+01 0.39938997583E+01 0.37799686476E+01
 0.36075590178E+01 0.34698420219E+01 0.33691075879E+01 0.33148741365E+01 0.33141953038E+01
 0.33692271489E+01 0.34712006475E+01 0.36074719581E+01 0.37805602508E+01 0.39948764410E+01
 0.42044470938E+01 0.44110902908E+01 0.46148168258E+01 0.47960662184E+01 0.49582010154E+01
 0.50931638533E+01 0.50049007446E+01 0.50940525419E+01 0.51552100068E+01 0.51929794229E+01
 0.52033788970E+01 0.51925086680E+01 0.51542927346E+01 0.50938914672E+01 0.50039581926E+01
 0.48923500784E+01 0.47502946045E+01 0.45884827430E+01 0.43994593982E+01 0.42026524281E+01
 0.39988343358E+01 0.37811192953E+01 0.35998356673E+01 0.34460869340E+01 0.33206102373E+01
 0.32366151324E+01 0.32083788158E+01 0.32368136973E+01 0.33192242755E+01 0.34462281767E+01
 0.35993009879E+01 0.37805602508E+01 0.39985714633E+01 0.42022777119E+01 0.44002064119E+01
 0.45878685880E+01 0.47502572775E+01 0.48922269148E+01 0.48005710432E+01 0.48916307024E+01
 0.49573196553E+01 0.50009119385E+01 0.50229098959E+01 0.50229401121E+01 0.50017396301E+01
 0.49582992571E+01 0.48923500784E+01 0.48005673092E+01 0.46844919087E+01 0.45436181781E+01
 0.43812265155E+01 0.41954856719E+01 0.40067229597E+01 0.37945154094E+01 0.36069296117E+01
 0.34459496093E+01 0.33020083730E+01 0.31940975336E+01 0.31356120982E+01 0.31361629480E+01
 0.31948829878E+01 0.33022096336E+01 0.34462281767E+01 0.36074719581E+01 0.37944689851E+01
 0.40075044668E+01 0.41955904710E+01 0.43808344769E+01 0.45438923008E+01 0.46847454862E+01
 0.45962350466E+01 0.46839394048E+01 0.47520875491E+01 0.47967118823E+01 0.48224203738E+01
 0.48304639615E+01 0.48221812150E+01 0.47955798490E+01 0.47502946045E+01 0.46844919087E+01
 0.45963910893E+01 0.44820026059E+01 0.43458919548E+01 0.41843513370E+01 0.40153922435E+01
 0.38231418570E+01 0.36309456057E+01 0.34714462555E+01 0.33197663037E+01 0.31945370520E+01
 0.31114820383E+01 0.30840460972E+01 0.31099781193E+01 0.31948829878E+01 0.33192242755E+01
 0.34712006475E+01 0.36308885386E+01 0.38227419696E+01 0.40148794664E+01 0.41838135897E+01
 0.43467628279E+01 0.44814698464E+01 0.43985465055E+01 0.44832780038E+01 0.45431461126E+01
 0.45858561057E+01 0.46144970134E+01 0.46277031467E+01 0.46279921102E+01 0.46147269073E+01
 0.45884827430E+01 0.45436181781E+01 0.44820026059E+01 0.43983154250E+01 0.42948235536E+01
 0.41640259773E+01 0.40149846146E+01 0.38562441024E+01 0.36713854780E+01 0.35133740237E+01
 0.33686932254E+01 0.32370536524E+01 0.31355561346E+01 0.30832323616E+01 0.30840460972E+01
 0.31361629480E+01 0.32368136973E+01 0.33692271489E+01 0.35131668100E+01 0.36718981255E+01
 0.38563890812E+01 0.40159058974E+01 0.41641757101E+01 0.42940794886E+01 0.42211480648E+01
 0.42931495224E+01 0.43446823915E+01 0.43836427302E+01 0.44010391222E+01 0.44115704911E+01
 0.44134771474E+01 0.44113976158E+01 0.43994593982E+01 0.43812265155E+01 0.43458919548E+01
 0.42948235536E+01 0.42192794588E+01 0.41294737464E+01 0.40102434730E+01 0.38818330450E+01
 0.37307517634E+01 0.35705946374E+01 0.34407959978E+01 0.33137951924E+01 0.32091216019E+01
 0.31355561346E+01 0.31114820383E+01 0.31356120982E+01 0.32083788158E+01 0.33141953038E+01
 0.34406642205E+01 0.35703196169E+01 0.37305304263E+01 0.38811169794E+01 0.40100102104E+01
 0.41286489025E+01 0.40703927311E+01 0.41274722576E+01 0.41677323210E+01 0.41828491640E+01
 0.41935334295E+01 0.42015214491E+01 0.42047981106E+01 0.42047742549E+01 0.42026524281E+01
 0.41954856719E+01 0.41843513370E+01 0.41640259773E+01 0.41294737464E+01 0.40702575176E+01
 0.39941616217E+01 0.38934040285E+01 0.37859514818E+01 0.36495971721E+01 0.35198338900E+01
 0.34146527889E+01 0.33137951924E+01 0.32370536524E+01 0.31945370520E+01 0.31940975336E+01
 0.32366151324E+01 0.33148741365E+01 0.34133275890E+01 0.35208840175E+01 0.36491941356E+01
 0.37872078418E+01 0.38930415773E+01 0.39952343124E+01 0.39564782453E+01 0.39958524191E+01
 0.40097602167E+01 0.40125844587E+01 0.40179925009E+01 0.40078743927E+01 0.39997258431E+01
 0.39938997583E+01 0.39988343358E+01 0.40067229597E+01 0.40153922435E+01 0.40149846146E+01
 0.40102434730E+01 0.39941616217E+01 0.39585805957E+01 0.38993664767E+01 0.38228698966E+01
 0.37361862575E+01 0.36233790274E+01 0.35198338900E+01 0.34407959978E+01 0.33686932254E+01
 0.33197663037E+01 0.33020083730E+01 0.33206102373E+01 0.33691075879E+01 0.34401218827E+01
 0.35208778987E+01 0.36223596868E+01 0.37362324299E+01 0.38217162343E+01 0.39002403568E+01
 0.38865152947E+01 0.39004613530E+01 0.38923873104E+01 0.38829046785E+01 0.38571887053E+01
 0.38205114217E+01 0.37941108259E+01 0.37799686476E+01 0.37811192953E+01 0.37945154094E+01
 0.38231418570E+01 0.38562441024E+01 0.38818330450E+01 0.38934040285E+01 0.38993664767E+01
 0.38864250486E+01 0.38503449978E+01 0.37971626976E+01 0.37361862575E+01 0.36495971721E+01
 0.35705946374E+01 0.35133740237E+01 0.34714462555E+01 0.34459496093E+01 0.34460869340E+01
 0.34698420219E+01 0.35130932519E+01 0.35712540608E+01 0.36487607690E+01 0.37372821995E+01
 0.37974085653E+01 0.38506880042E+01 0.38628087880E+01 0.38507596019E+01 0.38213967198E+01
 0.37869475906E+01 0.37296334408E+01 0.36715782372E+01 0.36327457281E+01 0.36075590178E+01
 0.35998356673E+01 0.36069296117E+01 0.36309456057E+01 0.36713854780E+01 0.37307517634E+01
 0.37859514818E+01 0.38228698967E+01 0.38503449978E+01 0.38637456019E+01 0.38503449978E+01
 0.38228698966E+01 0.37859514818E+01 0.37307517634E+01 0.36713854780E+01 0.36309456057E+01
 0.36069296117E+01 0.35998356673E+01 0.36075590178E+01 0.36327457281E+01 0.36715782372E+01
 0.37296334408E+01 0.37869475906E+01 0.38213967198E+01 0.38507596019E+01 0.38865152947E+01
 0.38506880042E+01 0.37974085653E+01 0.37372821995E+01 0.36487607690E+01 0.35712540608E+01
 0.35130932519E+01 0.34698420219E+01 0.34460869340E+01 0.34459496093E+01 0.34714462555E+01
 0.35133740237E+01 0.35705946374E+01 0.36495971721E+01 0.37361862575E+01 0.37971626976E+01
 0.38503449978E+01 0.38864250486E+01 0.38993664767E+01 0.38934040285E+01 0.38818330450E+01
 0.38562441024E+01 0.38231418570E+01 0.37945154094E+01 0.37811192953E+01 0.37799686476E+01
 0.37941108259E+01 0.38205114217E+01 0.38571887053E+01 0.38829046785E+01 0.38923873104E+01
 0.39004613530E+01 0.39564782453E+01 0.39002403568E+01 0.38217162343E+01 0.37362324299E+01
 0.36223596868E+01 0.35208778987E+01 0.34401218827E+01 0.33691075879E+01 0.33206102373E+01
 0.33020083730E+01 0.33197663037E+01 0.33686932254E+01 0.34407959978E+01 0.35198338900E+01
 0.36233790274E+01 0.37361862575E+01 0.38228698967E+01 0.38993664767E+01 0.39585805957E+01
 0.39941616217E+01 0.40102434730E+01 0.40149846146E+01 0.40153922435E+01 0.40067229597E+01
 0.39988343358E+01 0.39938997583E+01 0.39997258431E+01 0.40078743927E+01 0.40179925009E+01
 0.40125844587E+01 0.40097602167E+01 0.39958524191E+01 0.40703927311E+01 0.39952343124E+01
 0.38930415773E+01 0.37872078418E+01 0.36491941356E+01 0.35208840175E+01 0.34133275890E+01
 0.33148741365E+01 0.32366151324E+01 0.31940975336E+01 0.31945370520E+01 0.32370536524E+01
 0.33137951924E+01 0.34146527889E+01 0.35198338900E+01 0.36495971721E+01 0.37859514818E+01
 0.38934040285E+01 0.39941616217E+01 0.40702575176E+01 0.41294737464E+01 0.41640259773E+01
 0.41843513370E+01 0.41954856719E+01 0.42026524281E+01 0.42047742549E+01 0.42047981106E+01
 0.42015214491E+01 0.41935334295E+01 0.41828491640E+01 0.41677323210E+01 0.41274722576E+01
 0.42211480648E+01 0.41286489025E+01 0.40100102104E+01 0.38811169794E+01 0.37305304263E+01
 0.35703196169E+01 0.34406642205E+01 0.33141953038E+01 0.32083788158E+01 0.31356120982E+01
 0.31114820383E+01 0.31355561346E+01 0.32091216019E+01 0.33137951924E+01 0.34407959978E+01
 0.35705946374E+01 0.37307517634E+01 0.38818330450E+01 0.40102434730E+01 0.41294737464E+01
 0.42192794588E+01 0.42948235536E+01 0.43458919548E+01 0.43812265155E+01 0.43994593982E+01
 0.44113976158E+01 0.44134771474E+01 0.44115704911E+01 0.44010391222E+01 0.43836427302E+01
 0.43446823915E+01 0.42931495224E+01 0.43985465055E+01 0.42940794886E+01 0.41641757101E+01
 0.40159058974E+01 0.38563890812E+01 0.36718981255E+01 0.35131668100E+01 0.33692271489E+01
 0.32368136973E+01 0.31361629480E+01 0.30840460972E+01 0.30832323616E+01 0.31355561346E+01
 0.32370536524E+01 0.33686932254E+01 0.35133740237E+01 0.36713854780E+01 0.38562441024E+01
 0.40149846146E+01 0.41640259773E+01 0.42948235536E+01 0.43983154250E+01 0.44820026059E+01
 0.45436181781E+01 0.45884827430E+01 0.46147269073E+01 0.46279921102E+01 0.46277031467E+01
 0.46144970134E+01 0.45858561057E+01 0.45431461126E+01 0.44832780038E+01 0.45962350466E+01
 0.44814698464E+01 0.43467628279E+01 0.41838135897E+01 0.40148794664E+01 0.38227419696E+01
 0.36308885386E+01 0.34712006475E+01 0.33192242755E+01 0.31948829878E+01 0.31099781193E+01
 0.30840460972E+01 0.31114820383E+01 0.31945370520E+01 0.33197663037E+01 0.34714462555E+01
 0.36309456057E+01 0.38231418570E+01 0.40153922435E+01 0.41843513370E+01 0.43458919548E+01
 0.44820026059E+01 0.45963910893E+01 0.46844919087E+01 0.47502946045E+01 0.47955798490E+01
 0.48221812150E+01 0.48304639615E+01 0.48224203738E+01 0.47967118823E+01 0.47520875491E+01
 0.46839394048E+01 0.48005710432E+01 0.46847454862E+01 0.45438923008E+01 0.43808344769E+01
 0.41955904710E+01 0.40075044668E+01 0.37944689851E+01 0.36074719581E+01 0.34462281767E+01
 0.33022096336E+01 0.31948829878E+01 0.31361629480E+01 0.31356120982E+01 0.31940975336E+01
 0.33020083730E+01 0.34459496093E+01 0.36069296117E+01 0.37945154094E+01 0.40067229597E+01
 0.41954856719E+01 0.43812265155E+01 0.45436181781E+01 0.46844919087E+01 0.48005673092E+01
 0.48923500784E+01 0.49582992571E+01 0.50017396301E+01 0.50229401121E+01 0.50229098959E+01
 0.50009119385E+01 0.49573196553E+01 0.48916307024E+01 0.50049007446E+01 0.48922269148E+01
 0.47502572775E+01 0.45878685880E+01 0.44002064119E+01 0.42022777119E+01 0.39985714633E+01
 0.37805602508E+01 0.35993009879E+01 0.34462281767E+01 0.33192242755E+01 0.32368136973E+01
 0.32083788158E+01 0.32366151324E+01 0.33206102373E+01 0.34460869340E+01 0.35998356673E+01
 0.37811192953E+01 0.39988343358E+01 0.42026524281E+01 0.43994593982E+01 0.45884827430E+01
 0.47502946045E+01 0.48923500784E+01 0.50039581926E+01 0.50938914672E+01 0.51542927346E+01
 0.51925086680E+01 0.52033788970E+01 0.51929794229E+01 0.51552100068E+01 0.50940525419E+01
 0.52026265516E+01 0.50931638533E+01 0.49582010154E+01 0.47960662184E+01 0.46148168258E+01
 0.44110902908E+01 0.42044470938E+01 0.39948764410E+01 0.37805602508E+01 0.36074719581E+01
 0.34712006475E+01 0.33692271489E+01 0.33141953038E+01 0.33148741365E+01 0.33691075879E+01
 0.34698420219E+01 0.36075590178E+01 0.37799686476E+01 0.39938997583E+01 0.42047742549E+01
 0.44113976158E+01 0.46147269073E+01 0.47955798490E+01 0.49582992571E+01 0.50938914672E+01
 0.52029591653E+01 0.52840084193E+01 0.53382549735E+01 0.53649598262E+01 0.53646581859E+01
 0.53375514749E+01 0.52837492449E+01 0.53838861033E+01 0.52840780101E+01 0.51552676783E+01
 0.50012679286E+01 0.48222689948E+01 0.46274000139E+01 0.44145660546E+01 0.42044470938E+01
 0.39985714633E+01 0.37944689851E+01 0.36308885386E+01 0.35131668100E+01 0.34406642205E+01
 0.34133275890E+01 0.34401218827E+01 0.35130932519E+01 0.36327457281E+01 0.37941108259E+01
 0.39997258431E+01 0.42047981106E+01 0.44134771474E+01 0.46279921102E+01 0.48221812150E+01
 0.50017396301E+01 0.51542927346E+01 0.52840084193E+01 0.53834354105E+01 0.54559595768E+01
 0.54984165362E+01 0.55135542346E+01 0.54990128921E+01 0.54561098533E+01 0.55453815537E+01
 0.54559213491E+01 0.53377537211E+01 0.51923360331E+01 0.50226833821E+01 0.48310820128E+01
 0.46274000139E+01 0.44110902908E+01 0.42022777119E+01 0.40075044668E+01 0.38227419696E+01
 0.36718981255E+01 0.35703196169E+01 0.35208840175E+01 0.35208778987E+01 0.35712540608E+01
 0.36715782372E+01 0.38205114217E+01 0.40078743927E+01 0.42015214491E+01 0.44115704911E+01
 0.46277031467E+01 0.48304639615E+01 0.50229401121E+01 0.51925086680E+01 0.53382549735E+01
 0.54559595768E+01 0.55458904830E+01 0.56053794476E+01 0.56355234797E+01 0.56349708917E+01
 0.56054261122E+01 0.56817232485E+01 0.56055177786E+01 0.54988795076E+01 0.53647113894E+01
 0.52041005771E+01 0.50226833821E+01 0.48222689948E+01 0.46148168258E+01 0.44002064119E+01
 0.41955904710E+01 0.40148794664E+01 0.38563890812E+01 0.37305304263E+01 0.36491941356E+01
 0.36223596868E+01 0.36487607690E+01 0.37296334408E+01 0.38571887053E+01 0.40179925009E+01
 0.41935334295E+01 0.44010391222E+01 0.46144970134E+01 0.48224203738E+01 0.50229098959E+01
 0.52033788970E+01 0.53649598262E+01 0.54984165362E+01 0.56053794476E+01 0.56814340672E+01
 0.57283645032E+01 0.57436201549E+01 0.57283867586E+01 0.57907123772E+01 0.57283024312E+01
 0.56351066174E+01 0.55135952068E+01 0.53647113894E+01 0.51923360331E+01 0.50012679286E+01
 0.47960662184E+01 0.45878685880E+01 0.43808344769E+01 0.41838135897E+01 0.40159058974E+01
 0.38811169794E+01 0.37872078418E+01 0.37362324299E+01 0.37372821995E+01 0.37869475906E+01
 0.38829046785E+01 0.40125844587E+01 0.41828491640E+01 0.43836427302E+01 0.45858561057E+01
 0.47967118823E+01 0.50009119385E+01 0.51929794229E+01 0.53646581859E+01 0.55135542346E+01
 0.56355234797E+01 0.57283645032E+01 0.57909886135E+01 0.58219884248E+01 0.58223806760E+01
 0.58698811256E+01 0.58221749171E+01 0.57438270917E+01 0.56351066174E+01 0.54988795076E+01
 0.53377537211E+01 0.51552676783E+01 0.49582010154E+01 0.47502572775E+01 0.45438923008E+01
 0.43467628279E+01 0.41641757101E+01 0.40100102104E+01 0.38930415773E+01 0.38217162343E+01
 0.37974085653E+01 0.38213967198E+01 0.38923873104E+01 0.40097602167E+01 0.41677323210E+01
 0.43446823915E+01 0.45431461126E+01 0.47520875491E+01 0.49573196553E+01 0.51552100068E+01
 0.53375514749E+01 0.54990128921E+01 0.56349708917E+01 0.57436201549E+01 0.58219884248E+01
 0.58700811955E+01 0.58856024647E+01 0.59177502404E+01 0.58857093606E+01 0.58221749171E+01
 0.57283024312E+01 0.56055177786E+01 0.54559213491E+01 0.52840780101E+01 0.50931638533E+01
 0.48922269148E+01 0.46847454862E+01 0.44814698464E+01 0.42940794886E+01 0.41286489025E+01
 0.39952343124E+01 0.39002403568E+01 0.38506880042E+01 0.38507596019E+01 0.39004613530E+01
 0.39958524191E+01 0.41274722576E+01 0.42931495224E+01 0.44832780038E+01 0.46839394048E+01
 0.48916307024E+01 0.50940525419E+01 0.52837492449E+01 0.54561098533E+01 0.56054261122E+01
 0.57283867586E+01 0.58223806760E+01 0.58856024647E+01 0.59177168977E+01 0.59190176824E+01
 0.59025589309E+01 0.58537020107E+01 0.57732507347E+01 0.56623692050E+01 0.55226262252E+01
 0.53580276914E+01 0.51713809428E+01 0.49707180621E+01 0.47596030450E+01 0.45479193088E+01
 0.43475020115E+01 0.41639700354E+01 0.40096008283E+01 0.38914105730E+01 0.38163543275E+01
 0.37907494257E+01 0.38164933601E+01 0.38916158934E+01 0.40093927933E+01 0.41636687757E+01
 0.43475683991E+01 0.45480664522E+01 0.47595736975E+01 0.49705711127E+01 0.51714213627E+01
 0.53579329666E+01 0.55226248720E+01 0.56623175022E+01 0.57732642460E+01 0.58537127655E+01
 0.59025536865E+01 0.59025536865E+01 0.59025883644E+01 0.58717042303E+01 0.58098099628E+01
 0.57184126252E+01 0.55990280258E+01 0.54537723342E+01 0.52865140437E+01 0.51006752988E+01
 0.49040963295E+01 0.47038973399E+01 0.45047058330E+01 0.43215118253E+01 0.41595659455E+01
 0.40273150618E+01 0.39371924135E+01 0.38911073642E+01 0.38910980843E+01 0.39372259243E+01
 0.40279073354E+01 0.41587072804E+01 0.43206736162E+01 0.45063911812E+01 0.47030531792E+01
 0.49035660055E+01 0.51016288137E+01 0.52862065561E+01 0.54540162483E+01 0.55989585948E+01
 0.57185251161E+01 0.58099967736E+01 0.58715987706E+01 0.58537127653E+01 0.58685818859E+01
 0.58535068586E+01 0.58101761315E+01 0.57375786422E+01 0.56378501159E+01 0.55118601756E+01
 0.53631243523E+01 0.51950900843E+01 0.50124677037E+01 0.48203174870E+01 0.46308208100E+01
 0.44472036063E+01 0.42774069195E+01 0.41415667313E+01 0.40353881439E+01 0.39666885265E+01
 0.39431824112E+01 0.39665235688E+01 0.40348154703E+01 0.41411666214E+01 0.42807433855E+01
 0.44452541123E+01 0.46300136781E+01 0.48221608156E+01 0.50116051086E+01 0.51949127741E+01
 0.53629325855E+01 0.55119208803E+01 0.56377090960E+01 0.57373509218E+01 0.58099967734E+01
 0.57732642456E+01 0.58004540707E+01 0.58008724529E+01 0.57729832143E+01 0.57184504321E+01
 0.56372692839E+01 0.55308486707E+01 0.54010564057E+01 0.52497638360E+01 0.50831987149E+01
 0.49045212010E+01 0.47217982051E+01 0.45370730675E+01 0.43749534344E+01 0.42255205113E+01
 0.40975873599E+01 0.40121633692E+01 0.39680684465E+01 0.39689874232E+01 0.40118557770E+01
 0.40993846645E+01 0.42224454421E+01 0.43738837259E+01 0.45398951616E+01 0.47199491076E+01
 0.49049993630E+01 0.50829334663E+01 0.52504470774E+01 0.54010482045E+01 0.55308364017E+01
 0.56377090962E+01 0.57185251161E+01 0.56623175022E+01 0.56998908536E+01 0.57127221140E+01
 0.56998938149E+01 0.56626347784E+01 0.55991131945E+01 0.55124303729E+01 0.54008018377E+01
 0.52701884136E+01 0.51178658017E+01 0.49542146576E+01 0.47792173402E+01 0.46059575213E+01
 0.44395343128E+01 0.42748776156E+01 0.41463771873E+01 0.40521540030E+01 0.39937827075E+01
 0.39727590275E+01 0.39933993695E+01 0.40512561518E+01 0.41470368250E+01 0.42779501378E+01
 0.44376333705E+01 0.46065231460E+01 0.47789846292E+01 0.49543712865E+01 0.51181059936E+01
 0.52693664288E+01 0.54010482044E+01 0.55119208805E+01 0.55989585952E+01 0.55226248724E+01
 0.55682770977E+01 0.55916353707E+01 0.55911066285E+01 0.55682890680E+01 0.55221110953E+01
 0.54539052889E+01 0.53624457108E+01 0.52501783551E+01 0.51178554814E+01 0.49711962220E+01
 0.48079919733E+01 0.46441999593E+01 0.44770606905E+01 0.43154196621E+01 0.41860973666E+01
 0.40772808058E+01 0.39959962770E+01 0.39525071808E+01 0.39525337032E+01 0.39969347727E+01
 0.40770350004E+01 0.41839496514E+01 0.43156653311E+01 0.44764228435E+01 0.46447273218E+01
 0.48083139128E+01 0.49705295411E+01 0.51181059935E+01 0.52504470771E+01 0.53629325853E+01
 0.54540162486E+01 0.53579329669E+01 0.54082096215E+01 0.54384541982E+01 0.54483488355E+01
 0.54390826712E+01 0.54083787421E+01 0.53584375909E+01 0.52863043807E+01 0.51959443347E+01
 0.50824704863E+01 0.49543895882E+01 0.48077437893E+01 0.46582733698E+01 0.44949659948E+01
 0.43377286755E+01 0.42074058068E+01 0.40819533780E+01 0.39823878295E+01 0.39176071707E+01
 0.38972763702E+01 0.39169948659E+01 0.39822693860E+01 0.40837311011E+01 0.42071293729E+01
 0.43387894840E+01 0.44953525705E+01 0.46570936658E+01 0.48083139130E+01 0.49543712867E+01
 0.50829334661E+01 0.51949127736E+01 0.52862065559E+01 0.51714213626E+01 0.52234166996E+01
 0.52575233561E+01 0.52740300420E+01 0.52736764399E+01 0.52567838448E+01 0.52231037466E+01
 0.51710621407E+01 0.51008157853E+01 0.50115395116E+01 0.49055395596E+01 0.47790738071E+01
 0.46443124843E+01 0.44950494105E+01 0.43475763551E+01 0.42167768657E+01 0.40820951552E+01
 0.39692624687E+01 0.38918279081E+01 0.38532993432E+01 0.38540208970E+01 0.38917821296E+01
 0.39679907801E+01 0.40821120501E+01 0.42162782852E+01 0.43465806113E+01 0.44953525703E+01
 0.46447273218E+01 0.47789846296E+01 0.49049993634E+01 0.50116051084E+01 0.51016288133E+01
 0.49705711127E+01 0.50182957004E+01 0.50524123631E+01 0.50708940864E+01 0.50789607552E+01
 0.50714336667E+01 0.50534078977E+01 0.50184803900E+01 0.49716005151E+01 0.49034247345E+01
 0.48220307969E+01 0.47193541770E+01 0.46073594476E+01 0.44760392656E+01 0.43385052910E+01
 0.42157317474E+01 0.40805916195E+01 0.39620549494E+01 0.38759458931E+01 0.38254455633E+01
 0.38073925690E+01 0.38252130482E+01 0.38772118783E+01 0.39619454179E+01 0.40810654036E+01
 0.42162782853E+01 0.43387894837E+01 0.44764228431E+01 0.46065231460E+01 0.47199491080E+01
 0.48221608158E+01 0.49035660054E+01 0.47595736975E+01 0.48005477195E+01 0.48293780619E+01
 0.48462801250E+01 0.48535734076E+01 0.48535183898E+01 0.48453301015E+01 0.48283337338E+01
 0.47997633591E+01 0.47595919880E+01 0.47033996714E+01 0.46302928371E+01 0.45393973666E+01
 0.44377680976E+01 0.43164526164E+01 0.42070732347E+01 0.40826626564E+01 0.39621506970E+01
 0.38717977571E+01 0.38110878148E+01 0.37812780797E+01 0.37807201610E+01 0.38103815381E+01
 0.38716196324E+01 0.39619454179E+01 0.40821120504E+01 0.42071293731E+01 0.43156653308E+01
 0.44376333701E+01 0.45398951616E+01 0.46300136783E+01 0.47030531792E+01 0.45480664520E+01
 0.45784108785E+01 0.45944090629E+01 0.46046369098E+01 0.46098904692E+01 0.46116354420E+01
 0.46102076211E+01 0.46059121003E+01 0.45963072754E+01 0.45777903713E+01 0.45478278093E+01
 0.45058498680E+01 0.44462247342E+01 0.43733097123E+01 0.42774259014E+01 0.41835701961E+01
 0.40836643554E+01 0.39677536619E+01 0.38767813295E+01 0.38107209135E+01 0.37711293843E+01
 0.37564786896E+01 0.37725839954E+01 0.38103815379E+01 0.38772118780E+01 0.39679907803E+01
 0.40837311016E+01 0.41839496516E+01 0.42779501375E+01 0.43738837257E+01 0.44452541123E+01
 0.45063911810E+01 0.43475683987E+01 0.43575008912E+01 0.43610377087E+01 0.43572933093E+01
 0.43497114644E+01 0.43454741652E+01 0.43451384509E+01 0.43493729329E+01 0.43544301682E+01
 0.43606364259E+01 0.43589435617E+01 0.43477639984E+01 0.43198352587E+01 0.42809429915E+01
 0.42233879107E+01 0.41471525016E+01 0.40775586568E+01 0.39820469685E+01 0.38922714566E+01
 0.38249060989E+01 0.37813463957E+01 0.37572241329E+01 0.37564786898E+01 0.37807201610E+01
 0.38252130478E+01 0.38917821292E+01 0.39822693862E+01 0.40770350008E+01 0.41470368251E+01
 0.42224454421E+01 0.42807433857E+01 0.43206736162E+01 0.41636687757E+01 0.41539506857E+01
 0.41348265158E+01 0.41071818297E+01 0.40895200362E+01 0.40754749586E+01 0.40716080739E+01
 0.40757188031E+01 0.40913335555E+01 0.41097133311E+01 0.41333241216E+01 0.41522743630E+01
 0.41657085866E+01 0.41577836060E+01 0.41409206845E+01 0.40986799954E+01 0.40510421535E+01
 0.39966646239E+01 0.39169245825E+01 0.38544083275E+01 0.38067059358E+01 0.37813463956E+01
 0.37711293846E+01 0.37812780802E+01 0.38073925690E+01 0.38540208965E+01 0.39169948657E+01
 0.39969347728E+01 0.40512561518E+01 0.40993846644E+01 0.41411666217E+01 0.41587072809E+01
 0.40093927937E+01 0.39736745663E+01 0.39251755104E+01 0.38840318990E+01 0.38400253298E+01
 0.38019721746E+01 0.37812213736E+01 0.37811782539E+01 0.38006939365E+01 0.38378367665E+01
 0.38827094936E+01 0.39291052472E+01 0.39713886163E+01 0.40096428876E+01 0.40290136775E+01
 0.40344302394E+01 0.40131335927E+01 0.39929587117E+01 0.39535424939E+01 0.38959420134E+01
 0.38544083274E+01 0.38249060985E+01 0.38107209133E+01 0.38110878151E+01 0.38254455637E+01
 0.38532993432E+01 0.38972763700E+01 0.39525337032E+01 0.39933993694E+01 0.40118557766E+01
 0.40348154701E+01 0.40279073357E+01 0.38916158937E+01 0.38257293492E+01 0.37564287359E+01
 0.36802468950E+01 0.35957078494E+01 0.35370474495E+01 0.34988618315E+01 0.34883797898E+01
 0.34999006447E+01 0.35383541545E+01 0.35983733520E+01 0.36774994887E+01 0.37561564587E+01
 0.38274152421E+01 0.38893970278E+01 0.39381752662E+01 0.39653028081E+01 0.39690783042E+01
 0.39717999093E+01 0.39535424941E+01 0.39169245828E+01 0.38922714564E+01 0.38767813290E+01
 0.38717977569E+01 0.38759458933E+01 0.38918279083E+01 0.39176071707E+01 0.39525071809E+01
 0.39727590278E+01 0.39689874230E+01 0.39665235683E+01 0.39372259241E+01 0.38164933600E+01
 0.37249236604E+01 0.36249905918E+01 0.35058025439E+01 0.33994845005E+01 0.33192537015E+01
 0.32575999460E+01 0.32243720529E+01 0.32230776331E+01 0.32571077550E+01 0.33164828251E+01
 0.34006585213E+01 0.35068406705E+01 0.36238957492E+01 0.37261644758E+01 0.38165058728E+01
 0.38914916257E+01 0.39434286054E+01 0.39690783040E+01 0.39929587117E+01 0.39966646243E+01
 0.39820469689E+01 0.39677536617E+01 0.39621506966E+01 0.39620549494E+01 0.39692624687E+01
 0.39823878293E+01 0.39959962770E+01 0.39937827079E+01 0.39680684468E+01 0.39431824110E+01
 0.38910980840E+01 0.37907494257E+01 0.36734900893E+01 0.35398199545E+01 0.33876725322E+01
 0.32551698377E+01 0.31386479573E+01 0.30347763727E+01 0.29664293270E+01 0.29416290143E+01
 0.29671416089E+01 0.30366907569E+01 0.31387309860E+01 0.32540346158E+01 0.33887192303E+01
 0.35382186656E+01 0.36739563171E+01 0.37897957871E+01 0.38914916258E+01 0.39653028079E+01
 0.40131335923E+01 0.40510421535E+01 0.40775586572E+01 0.40836643556E+01 0.40826626563E+01
 0.40805916195E+01 0.40820951553E+01 0.40819533777E+01 0.40772808054E+01 0.40521540030E+01
 0.40121633697E+01 0.39666885268E+01 0.38911073642E+01 0.38163543276E+01 0.36736361380E+01
 0.35105522000E+01 0.33267610826E+01 0.31654138564E+01 0.30051224216E+01 0.28575442754E+01
 0.27498477034E+01 0.26937885728E+01 0.26939742616E+01 0.27481226647E+01 0.28573376680E+01
 0.30057818411E+01 0.31645445913E+01 0.33279817618E+01 0.35107844394E+01 0.36739563171E+01
 0.38165058731E+01 0.39381752663E+01 0.40344302391E+01 0.40986799950E+01 0.41471525016E+01
 0.41835701962E+01 0.42070732347E+01 0.42157317475E+01 0.42167768660E+01 0.42074058070E+01
 0.41860973662E+01 0.41463771869E+01 0.40975873599E+01 0.40353881441E+01 0.39371924135E+01
 0.38914105728E+01 0.37253496687E+01 0.35393346170E+01 0.33279724382E+01 0.31335576925E+01
 0.29340536212E+01 0.27428751975E+01 0.25990572129E+01 0.25100079341E+01 0.24814977598E+01
 0.25108622078E+01 0.25994386815E+01 0.27421982909E+01 0.29351280404E+01 0.31324423497E+01
 0.33279817617E+01 0.35382186653E+01 0.37261644760E+01 0.38893970283E+01 0.40290136777E+01
 0.41409206842E+01 0.42233879105E+01 0.42774259014E+01 0.43164526163E+01 0.43385052908E+01
 0.43475763552E+01 0.43377286760E+01 0.43154196623E+01 0.42748776154E+01 0.42255205111E+01