       N       E                     dE             d eps       ncg     rms          ort
DAV:   1    -0.136805233891E+01   -0.13681E+01   -0.10918E+04  1536   0.219E+02
DAV:   2    -0.234583036825E+01   -0.97778E+00   -0.97778E+00  1536   0.520E+00
DAV:   3    -0.234591402544E+01   -0.83657E-04   -0.83657E-04  1536   0.466E-02
DAV:   4    -0.234591402614E+01   -0.70713E-09   -0.50524E-09  1536   0.573E-05
DAV:   5    -0.234591402601E+01    0.13324E-09   -0.47310E-13  1536   0.210E-08
SDA:   6    -0.223756933278E+01    0.10834E+00   -0.47310E-13  1536   0.404E+00 0.000E+00
CGA:   7    -0.242685550659E+01   -0.18929E+00   -0.18634E+00  1536   0.282E-01 0.119E-01
CGA:   8    -0.244166146764E+01   -0.14806E-01   -0.14768E-01  1536   0.696E-03 0.137E-03
CGA:   9    -0.244242600005E+01   -0.76453E-03   -0.73783E-03  1536   0.775E-04 0.337E-04
CGA:  10    -0.244247057686E+01   -0.44577E-04   -0.44187E-04  1536   0.329E-05 0.142E-05
CGA:  11    -0.244247298880E+01   -0.24119E-05   -0.22990E-05  1536   0.572E-06 0.280E-06
CGA:  12    -0.244247351856E+01   -0.52977E-06   -0.57316E-06  1536   0.768E-07-0.698E-07
   1 F= -.24424735E+01 E0= -.24406038E+01  d E =-.244247E+01  mag=    -0.0000
       N       E                     dE             d eps       ncg     rms          ort
SDA:   1    -0.217119977350E+01    0.27127E+00    0.00000E+00  1536   0.535E+00 0.000E+00
CGA:   2    -0.245005837210E+01   -0.27886E+00   -0.27910E+00  1536   0.151E-01-0.135E-02
CGA:   3    -0.246148952904E+01   -0.11431E-01   -0.11427E-01  1536   0.196E-02 0.410E-05
CGA:   4    -0.246260211865E+01   -0.11126E-02   -0.11149E-02  1536   0.886E-04-0.122E-04
CGA:   5    -0.246264530515E+01   -0.43187E-04   -0.42736E-04  1536   0.508E-05 0.526E-05
CGA:   6    -0.246264893566E+01   -0.36305E-05   -0.35504E-05  1536   0.805E-06 0.315E-06
CGA:   7    -0.246264963055E+01   -0.69489E-06   -0.87862E-06  1536   0.240E-06-0.299E-06
   2 F= -.24626496E+01 E0= -.24599787E+01  d E =-.201761E-01  mag=     0.0000
       N       E                     dE             d eps       ncg     rms          ort
SDA:   1    -0.239524015520E+01    0.67409E-01    0.00000E+00  1536   0.129E+00 0.000E+00
CGA:   2    -0.246253790503E+01   -0.67298E-01   -0.67315E-01  1536   0.352E-02-0.169E-03
CGA:   3    -0.246525047600E+01   -0.27126E-02   -0.27175E-02  1536   0.448E-03-0.148E-04
CGA:   4    -0.246550631443E+01   -0.25584E-03   -0.25618E-03  1536   0.174E-04-0.286E-05
CGA:   5    -0.246551446742E+01   -0.81530E-05   -0.81471E-05  1536   0.111E-05 0.190E-05
CGA:   6    -0.246551519924E+01   -0.73182E-06   -0.71103E-06  1536   0.190E-06 0.191E-06
   3 F= -.24655152E+01 E0= -.24621131E+01  d E =-.230417E-01  mag=     0.0000
       N       E                     dE             d eps       ncg     rms          ort
SDA:   1    -0.246383444093E+01    0.16800E-02    0.00000E+00  1536   0.321E-02 0.000E+00
CGA:   2    -0.246550861544E+01   -0.16742E-02   -0.16742E-02  1536   0.869E-04-0.568E-05
CGA:   3    -0.246557627247E+01   -0.67657E-04   -0.67829E-04  1536   0.106E-04-0.616E-06
CGA:   4    -0.246558238737E+01   -0.61149E-05   -0.61230E-05  1536   0.348E-06-0.145E-06
CGA:   5    -0.246558246646E+01   -0.79086E-07   -0.10951E-06  1536   0.694E-07 0.145E-06
   4 F= -.24655825E+01 E0= -.24620003E+01  d E =-.231089E-01  mag=    -0.0000
       N       E                     dE             d eps       ncg     rms          ort
SDA:   1    -0.229468421690E+01    0.17090E+00    0.00000E+00  1536   0.293E+00 0.000E+00
CGA:   2    -0.246476265740E+01   -0.17008E+00   -0.16916E+00  1536   0.565E-02 0.767E-02
CGA:   3    -0.246732983584E+01   -0.25672E-02   -0.25679E-02  1536   0.202E-03 0.142E-04
CGA:   4    -0.246750281651E+01   -0.17298E-03   -0.17476E-03  1536   0.397E-04-0.497E-05
CGA:   5    -0.246752765101E+01   -0.24835E-04   -0.24596E-04  1536   0.162E-05 0.209E-05
CGA:   6    -0.246752861600E+01   -0.96499E-06   -0.96341E-06  1536   0.859E-07 0.423E-07
   5 F= -.24675286E+01 E0= -.24636387E+01  d E =-.194615E-02  mag=    -0.0000
