 vasp.6.4.1 05Apr23 (build Apr 16 2023 17:31:45) complex                         
 executed on             LinuxGNU date 2024.07.05  23:17:40
 running  384 mpi-ranks, with    1 threads/rank, on    3 nodes
 distrk:  each k-point on  384 cores,    1 groups
 distr:  one band on NCORE=   4 cores,   96 groups


--------------------------------------------------------------------------------------------------------


 INCAR:
   ALGO = All
   EDIFF = 0.1E-05
   EDIFFG = -0.05
   ENCUT = 300
   GGA = PS
   IBRION = 2
   ISIF = 3
   ISMEAR = 0
   ISPIN = 2
   LASPH = True
   LCHARG = False
   LHFCALC = False
   LMAXMIX = 4
   LORBIT = 11
   LREAL = Auto
   LVHAR = True
   LWAVE = False
   NCORE = 4
   NEDOS = 2000
   NELM = 40
   NSW = 300
   PREC = Accurate

 POTCAR:    PAW_PBE Cd 06Sep2000                  
 -----------------------------------------------------------------------------
|                                                                             |
|           W    W    AA    RRRRR   N    N  II  N    N   GGGG   !!!           |
|           W    W   A  A   R    R  NN   N  II  NN   N  G    G  !!!           |
|           W    W  A    A  R    R  N N  N  II  N N  N  G       !!!           |
|           W WW W  AAAAAA  RRRRR   N  N N  II  N  N N  G  GGG   !            |
|           WW  WW  A    A  R   R   N   NN  II  N   NN  G    G                |
|           W    W  A    A  R    R  N    N  II  N    N   GGGG   !!!           |
|                                                                             |
|     You use a magnetic or noncollinear calculation, but did not specify     |
|     the initial magnetic moment with the MAGMOM tag. Note that a            |
|     default of 1 will be used for all atoms. This ferromagnetic setup       |
|     may break the symmetry of the crystal, in particular it may rule        |
|     out finding an antiferromagnetic solution. Thence, we recommend         |
|     setting the initial magnetic moment manually or verifying carefully     |
|     that this magnetic setup is desired.                                    |
|                                                                             |
 -----------------------------------------------------------------------------

 POTCAR:    PAW_PBE Cd 06Sep2000                  
   VRHFIN =Cd : s2 d10                                                                              
   LEXCH  = PE                                                                                      
   EATOM  =  1293.1815 eV,   95.0462 Ry                                                             
                                                                                                    
   TITEL  = PAW_PBE Cd 06Sep2000                                                                    
   LULTRA =        F    use ultrasoft PP ?                                                          
   IUNSCR =        1    unscreen: 0-lin 1-nonlin 2-no                                               
   RPACOR =    2.000    partial core radius                                                         
   POMASS =  112.411; ZVAL   =   12.000    mass and valenz                                          
   RCORE  =    2.300    outmost cutoff radius                                                       
   RWIGS  =    2.980; RWIGS  =    1.577    wigner-seitz radius (au A)                               
   ENMAX  =  274.336; ENMIN  =  205.752 eV                                                          
   RCLOC  =    2.054    cutoff for local pot                                                        
   LCOR   =        T    correct aug charges                                                         
   LPAW   =        T    paw PP                                                                      
   EAUG   =  456.106                                                                                
   DEXC   =    0.000                                                                                
   RMAX   =    2.358    core radius for proj-oper                                                   
   RAUG   =    1.300    factor for augmentation sphere                                              
   RDEP   =    2.450    radius for radial grids                                                     
   RDEPT  =    1.955    core radius for aug-charge                                                  
                                                                                                    
   Atomic configuration                                                                             
   12 entries                                                                                       
     n  l   j            E        occ.                                                              
     1  0  0.50    -26519.7817   2.0000                                                             
     2  0  0.50     -3936.9612   2.0000                                                             
     2  1  1.50     -3532.2230   6.0000                                                             
     3  0  0.50      -733.7908   2.0000                                                             
     3  1  1.50      -601.0792   6.0000                                                             
     3  2  2.50      -393.5307  10.0000                                                             
     4  0  0.50      -105.8977   2.0000                                                             
     4  1  1.50       -66.9488   6.0000                                                             
     4  2  2.50       -11.7331  10.0000                                                             
     5  0  0.50        -5.6592   2.0000                                                             
     5  1  0.50        -1.3606   0.0000                                                             
     4  3  2.50        -1.3606   0.0000                                                             
   Description                                                                                      
     l       E           TYP  RCUT    TYP  RCUT                                                     
     2    -11.7331479     23  2.300                                                                 
     2    -13.0937305     23  2.300                                                                 
     0     -5.6591502     23  2.300                                                                 
     0     -1.5561433     23  2.300                                                                 
     1     -2.7211652     23  2.300                                                                 
     1      8.3548275     23  2.300                                                                 
  local pseudopotential read in
  partial core-charges read in
  partial kinetic energy density read in
  atomic valenz-charges read in
  non local Contribution for L=           2  read in
    real space projection operators read in
  non local Contribution for L=           2  read in
    real space projection operators read in
  non local Contribution for L=           0  read in
    real space projection operators read in
  non local Contribution for L=           0  read in
    real space projection operators read in
  non local Contribution for L=           1  read in
    real space projection operators read in
  non local Contribution for L=           1  read in
    real space projection operators read in
    PAW grid and wavefunctions read in

   number of l-projection  operators is LMAX  =           6
   number of lm-projection operators is LMMAX =          18

 -----------------------------------------------------------------------------
|                                                                             |
|               ----> ADVICE to this user running VASP <----                  |
|                                                                             |
|     You have a (more or less) 'small supercell' and for smaller cells       |
|     it is recommended to use the reciprocal-space projection scheme!        |
|     The real-space optimization is not efficient for small cells and it     |
|     is also less accurate ...                                               |
|     Therefore, set LREAL=.FALSE. in the INCAR file.                         |
|                                                                             |
 -----------------------------------------------------------------------------

 Optimization of the real space projectors (new method)

 maximal supplied QI-value         = 16.25
 optimisation between [QCUT,QGAM] = [  8.78, 17.71] = [ 21.57, 87.87] Ry 
 Optimized for a Real-space Cutoff    1.55 Angstroem

   l    n(q)    QCUT    max X(q) W(low)/X(q) W(high)/X(q)  e(spline) 
   2      7     8.776    73.106    0.20E-03    0.51E-03    0.27E-06
   2      7     8.776    71.731    0.20E-03    0.52E-03    0.27E-06
   0      8     8.776   146.509    0.20E-03    0.21E-03    0.73E-07
   0      8     8.776    95.017    0.20E-03    0.21E-03    0.71E-07
   1      8     8.776    36.165    0.16E-03    0.23E-03    0.87E-07
   1      8     8.776    31.530    0.16E-03    0.21E-03    0.79E-07
 -----------------------------------------------------------------------------
|                                                                             |
|               ----> ADVICE to this user running VASP <----                  |
|                                                                             |
|     You enforced a specific xc type in the INCAR file but a different       |
|     type was found in the POTCAR file.                                      |
|     I HOPE YOU KNOW WHAT YOU ARE DOING!                                     |
|                                                                             |
 -----------------------------------------------------------------------------

  PAW_PBE Cd 06Sep2000                  :
 energy of atom  1       EATOM=-1293.1815
 kinetic energy error for atom=    0.0640 (will be added to EATOM!!)


 POSCAR: Cd2
  positions in direct lattice
  velocities in cartesian coordinates
 exchange correlation table for  LEXCH =       14
   RHO(1)=    0.500       N(1)  =     2000
   RHO(2)=  100.500       N(2)  =     4000



--------------------------------------------------------------------------------------------------------


 ion  position               nearest neighbor table
   1  0.667  0.333  0.750-   2 3.39   2 3.39   2 3.39   2 3.39   2 3.39   2 3.39
   2  0.333  0.667  0.250-   1 3.39   1 3.39   1 3.39   1 3.39   1 3.39   1 3.39

  LATTYP: Found a hexagonal cell.
 ALAT       =     2.9150019560
 C/A-ratio  =     2.0219002189
  
  Lattice vectors:
  
 A1 = (   2.9150019560,  -0.0000000000,   0.0000000000)
 A2 = (  -1.4575009780,   2.5244657460,   0.0000000000)
 A3 = (  -0.0000000000,  -0.0000000000,   5.8938430930)


Analysis of symmetry for initial positions (statically):
=====================================================================
 Subroutine PRICEL returns:
 Original cell was already a primitive cell.
 

 Routine SETGRP: Setting up the symmetry group for a 
 hexagonal supercell.


 Subroutine GETGRP returns: Found 24 space group operations
 (whereof 12 operations were pure point group operations)
 out of a pool of 24 trial point group operations.


The static configuration has the point symmetry D_3d.
 The point group associated with its full space group is D_6h.


Analysis of symmetry for dynamics (positions and initial velocities):
=====================================================================
 Subroutine PRICEL returns:
 Original cell was already a primitive cell.
 

 Routine SETGRP: Setting up the symmetry group for a 
 hexagonal supercell.


 Subroutine GETGRP returns: Found 24 space group operations
 (whereof 12 operations were pure point group operations)
 out of a pool of 24 trial point group operations.


The dynamic configuration has the point symmetry D_3d.
 The point group associated with its full space group is D_6h.


Analysis of structural, dynamic, and magnetic symmetry:
=====================================================================
 Subroutine PRICEL returns:
 Original cell was already a primitive cell.
 

 Routine SETGRP: Setting up the symmetry group for a 
 hexagonal supercell.


 Subroutine GETGRP returns: Found 24 space group operations
 (whereof 12 operations were pure point group operations)
 out of a pool of 24 trial point group operations.


The overall configuration has the point symmetry D_3d.
 The point group associated with its full space group is D_6h.


 Subroutine INISYM returns: Found 24 space group operations
 (whereof 12 operations are pure point group operations),
 and found     1 'primitive' translations


----------------------------------------------------------------------------------------

                                     Primitive cell                                     

  volume of cell :      43.3717

  direct lattice vectors                    reciprocal lattice vectors
     2.915001956 -0.000000000  0.000000000     0.343052943  0.198061709  0.000000000
    -1.457500978  2.524465746  0.000000000     0.000000000  0.396123418  0.000000000
    -0.000000000 -0.000000000  5.893843093    -0.000000000 -0.000000000  0.169668582

  length of vectors
     2.915001956  2.915001956  5.893843093     0.396123418  0.396123418  0.169668582

  position of ions in fractional coordinates (direct lattice)
     0.666666667  0.333333333  0.750000000
     0.333333333  0.666666667  0.250000000

  ion indices of the primitive-cell ions
   primitive index   ion index
                 1           1
                 2           2

----------------------------------------------------------------------------------------



 KPOINTS: K-Spacing Value to Generate K-Mesh: 0.03

Automatic generation of k-mesh.
 Grid dimensions read from file:
 generate k-points for:    7    7    3

 Generating k-lattice:

  Cartesian coordinates                     Fractional coordinates (reciprocal lattice)
     0.049007563  0.028294530  0.000000000     0.142857143  0.000000000  0.000000000
     0.000000000  0.056589060  0.000000000     0.000000000  0.142857143  0.000000000
    -0.000000000 -0.000000000  0.056556194     0.000000000 -0.000000000  0.333333333

  Length of vectors
     0.056589060  0.056589060  0.056556194

  Shift w.r.t. Gamma in fractional coordinates (k-lattice)
     0.000000000  0.000000000  0.000000000

 
 Subroutine IBZKPT returns following result:
 ===========================================
 
 Found     16 irreducible k-points:
 
 Following reciprocal coordinates:
            Coordinates               Weight
  0.000000  0.000000  0.000000      1.000000
  0.142857  0.000000  0.000000      6.000000
  0.285714  0.000000  0.000000      6.000000
  0.428571  0.000000  0.000000      6.000000
  0.142857  0.142857  0.000000      6.000000
  0.285714  0.142857  0.000000     12.000000
  0.428571  0.142857  0.000000      6.000000
  0.285714  0.285714  0.000000      6.000000
  0.000000  0.000000  0.333333      2.000000
  0.142857  0.000000  0.333333     12.000000
  0.285714  0.000000  0.333333     12.000000
  0.428571  0.000000  0.333333     12.000000
  0.142857  0.142857  0.333333     12.000000
  0.285714  0.142857  0.333333     24.000000
  0.428571  0.142857  0.333333     12.000000
  0.285714  0.285714  0.333333     12.000000
 
 Following cartesian coordinates:
            Coordinates               Weight
  0.000000  0.000000  0.000000      1.000000
  0.049008  0.028295  0.000000      6.000000
  0.098015  0.056589  0.000000      6.000000
  0.147023  0.084884  0.000000      6.000000
  0.049008  0.084884  0.000000      6.000000
  0.098015  0.113178  0.000000     12.000000
  0.147023  0.141473  0.000000      6.000000
  0.098015  0.169767  0.000000      6.000000
  0.000000  0.000000  0.056556      2.000000
  0.049008  0.028295  0.056556     12.000000
  0.098015  0.056589  0.056556     12.000000
  0.147023  0.084884  0.056556     12.000000
  0.049008  0.084884  0.056556     12.000000
  0.098015  0.113178  0.056556     24.000000
  0.147023  0.141473  0.056556     12.000000
  0.098015  0.169767  0.056556     12.000000
 


--------------------------------------------------------------------------------------------------------




 Dimension of arrays:
   k-points           NKPTS =     16   k-points in BZ     NKDIM =     16   number of bands    NBANDS=     96
   number of dos      NEDOS =   2000   number of ions     NIONS =      2
   non local maximal  LDIM  =      6   non local SUM 2l+1 LMDIM =     18
   total plane-waves  NPLWV =   9216
   max r-space proj   IRMAX =   3349   max aug-charges    IRDMAX=   9184
   dimension x,y,z NGX =    16 NGY =   16 NGZ =   36
   dimension x,y,z NGXF=    32 NGYF=   32 NGZF=   72
   support grid    NGXF=    32 NGYF=   32 NGZF=   72
   ions per type =               2
   NGX,Y,Z   is equivalent  to a cutoff of   9.12,  9.12, 10.15 a.u.
   NGXF,Y,Z  is equivalent  to a cutoff of  18.25, 18.25, 20.31 a.u.

 SYSTEM =  unknown system                          
 POSCAR =  Cd2                                     

 Startparameter for this run:
   NWRITE =      2    write-flag & timer
   PREC   = accura    normal or accurate (medium, high low for compatibility)
   ISTART =      0    job   : 0-new  1-cont  2-samecut
   ICHARG =      2    charge: 1-file 2-atom 10-const
   ISPIN  =      2    spin polarized calculation?
   LNONCOLLINEAR =      F non collinear calculations
   LSORBIT =      F    spin-orbit coupling
   INIWAV =      1    electr: 0-lowe 1-rand  2-diag
   LASPH  =      T    aspherical Exc in radial PAW
 Electronic Relaxation 1
   ENCUT  =  300.0 eV  22.05 Ry    4.70 a.u.   4.12  4.12  8.32*2*pi/ulx,y,z
   ENINI  =  300.0     initial cutoff
   ENAUG  =  456.1 eV  augmentation charge cutoff
   NELM   =     40;   NELMIN=  2; NELMDL=  0     # of ELM steps 
   EDIFF  = 0.1E-05   stopping-criterion for ELM
   LREAL  =      T    real-space projection
   NLSPLINE    = F    spline interpolate recip. space projectors
   LCOMPAT=      F    compatible to vasp.4.4
   GGA_COMPAT  = T    GGA compatible to vasp.4.4-vasp.4.6
   LMAXPAW     = -100 max onsite density
   LMAXMIX     =    4 max onsite mixed and CHGCAR
   VOSKOWN=      0    Vosko Wilk Nusair interpolation
   ROPT   =   -0.00025
 Ionic relaxation
   EDIFFG = -.5E-01   stopping-criterion for IOM
   NSW    =    300    number of steps for IOM
   NBLOCK =      1;   KBLOCK =    300    inner block; outer block 
   IBRION =      2    ionic relax: 0-MD 1-quasi-New 2-CG
   NFREE  =      1    steps in history (QN), initial steepest desc. (CG)
   ISIF   =      3    stress and relaxation
   IWAVPR =     11    prediction:  0-non 1-charg 2-wave 3-comb
   ISYM   =      2    0-nonsym 1-usesym 2-fastsym
   LCORR  =      T    Harris-Foulkes like correction to forces

   POTIM  = 0.5000    time-step for ionic-motion
   TEIN   =    0.0    initial temperature
   TEBEG  =    0.0;   TEEND  =   0.0 temperature during run
   SMASS  =  -3.00    Nose mass-parameter (am)
   estimated Nose-frequenzy (Omega)   =  0.10E-29 period in steps = 0.13E+47 mass=  -0.194E-27a.u.
   SCALEE = 1.0000    scale energy and forces
   NPACO  =    256;   APACO  = 10.0  distance and # of slots for P.C.
   PSTRESS=    0.0 pullay stress

  Mass of Ions in am
   POMASS = 112.41
  Ionic Valenz
   ZVAL   =  12.00
  Atomic Wigner-Seitz radii
   RWIGS  =  -1.00
  virtual crystal weights 
   VCA    =   1.00
   NELECT =      24.0000    total number of electrons
   NUPDOWN=      -1.0000    fix difference up-down

 DOS related values:
   EMIN   =  10.00;   EMAX   =-10.00  energy-range for DOS
   EFERMI =   0.00;   METHOD = LEGACY      
   ISMEAR =     0;   SIGMA  =   0.20  broadening in eV -4-tet -1-fermi 0-gaus

 Electronic relaxation 2 (details)
   IALGO  =     58    algorithm
   LDIAG  =      T    sub-space diagonalisation (order eigenvalues)
   LSUBROT=      F    optimize rotation matrix (better conditioning)
   TURBO    =      0    0=normal 1=particle mesh
   IRESTART =      0    0=no restart 2=restart with 2 vectors
   NREBOOT  =      0    no. of reboots
   NMIN     =      0    reboot dimension
   EREF     =   0.00    reference energy to select bands
   IMIX   =      4    mixing-type and parameters
     AMIX     =   0.40;   BMIX     =  1.00
     AMIX_MAG =   1.60;   BMIX_MAG =  1.00
     AMIN     =   0.10
     WC   =   100.;   INIMIX=   1;  MIXPRE=   1;  MAXMIX= -45

 Intra band minimization:
   WEIMIN = 0.0010     energy-eigenvalue tresh-hold
   EBREAK =  0.26E-08  absolut break condition
   DEPER  =   0.30     relativ break condition  

   TIME   =   0.40     timestep for ELM

  volume/ion in A,a.u.               =      21.69       146.34
  Fermi-wavevector in a.u.,A,eV,Ry     =   1.344032  2.539852 24.577864  1.806422
  Thomas-Fermi vector in A             =   2.472058

 Write flags
   LWAVE        =      F    write WAVECAR
   LDOWNSAMPLE  =      F    k-point downsampling of WAVECAR
   LCHARG       =      F    write CHGCAR
   LVTOT        =      F    write LOCPOT, total local potential
   LVHAR        =      T    write LOCPOT, Hartree potential only
   LELF         =      F    write electronic localiz. function (ELF)
   LORBIT       =     11    0 simple, 1 ext, 2 COOP (PROOUT), +10 PAW based schemes


 Dipole corrections
   LMONO  =      F    monopole corrections only (constant potential shift)
   LDIPOL =      F    correct potential (dipole corrections)
   IDIPOL =      0    1-x, 2-y, 3-z, 4-all directions 
   EPSILON=  1.0000000 bulk dielectric constant

 Exchange correlation treatment:
   GGA     =    PS    GGA type
   LEXCH   =    14    internal setting for exchange type
   LIBXC   =     F    Libxc                    
   VOSKOWN =     0    Vosko Wilk Nusair interpolation
   LHFCALC =     F    Hartree Fock is set to
   LHFONE  =     F    Hartree Fock one center treatment
   AEXX    =    0.0000 exact exchange contribution

 Linear response parameters
   LEPSILON=     F    determine dielectric tensor
   LRPA    =     F    only Hartree local field effects (RPA)
   LNABLA  =     F    use nabla operator in PAW spheres
   LVEL    =     F    velocity operator in full k-point grid
   CSHIFT  =0.1000    complex shift for real part using Kramers Kronig
   OMEGAMAX=  -1.0    maximum frequency
   DEG_THRESHOLD= 0.2000000E-02 threshold for treating states as degnerate
   RTIME   =   -0.100 relaxation time in fs
  (WPLASMAI=    0.000 imaginary part of plasma frequency in eV, 0.658/RTIME)
   DFIELD  = 0.0000000 0.0000000 0.0000000 field for delta impulse in time

  Optional k-point grid parameters
   LKPOINTS_OPT  =     F    use optional k-point grid
   KPOINTS_OPT_MODE=     1    mode for optional k-point grid

 Orbital magnetization related:
   ORBITALMAG=     F  switch on orbital magnetization
   LCHIMAG   =     F  perturbation theory with respect to B field
   DQ        =  0.001000  dq finite difference perturbation B field
   LLRAUG    =     F  two centre corrections for induced B field
   LBONE     =     F  B-component reconstruction in AE one-centre
   LVGVCALC  =     T  calculate vGv susceptibility
   LVGVAPPL  =     F  apply vGv susceptibility instead of pGv for G=0

 Random number generation:
   RANDOM_GENERATOR = DEFAULT
   PCG_SEED         = not used


--------------------------------------------------------------------------------------------------------


 conjugate gradient relaxation of ions
 charge density and potential will be updated during run
 spin polarized calculation
 Conjugate gradient for all bands (Freysoldt, et al. PRB 79, 241103 (2009))
 preconditioned conjugated gradient                                        
 perform sub-space diagonalisation
    before iterative eigenvector-optimisation
 modified Broyden-mixing scheme, WC =      100.0
 initial mixing is a Kerker type mixing with AMIX =  0.4000 and BMIX =      1.0000
 Hartree-type preconditioning will be used
 using additional bands           84
 real space projection scheme for non local part
 use partial core corrections
 no Harris-corrections to forces 
 use gradient corrections 
 use of overlap-Matrix (Vanderbilt PP)
 Gauss-broadening in eV      SIGMA  =   0.20


--------------------------------------------------------------------------------------------------------


  energy-cutoff  :      300.00
  volume of cell :       43.37
      direct lattice vectors                 reciprocal lattice vectors
     2.915001956 -0.000000000  0.000000000     0.343052943  0.198061709  0.000000000
    -1.457500978  2.524465746  0.000000000     0.000000000  0.396123418  0.000000000
    -0.000000000 -0.000000000  5.893843093    -0.000000000 -0.000000000  0.169668582

  length of vectors
     2.915001956  2.915001956  5.893843093     0.396123418  0.396123418  0.169668582



 k-points in units of 2pi/SCALE and weight: K-Spacing Value to Generate K-Mesh: 0.03
   0.00000000  0.00000000  0.00000000       0.007
   0.04900756  0.02829453  0.00000000       0.041
   0.09801513  0.05658906  0.00000000       0.041
   0.14702269  0.08488359  0.00000000       0.041
   0.04900756  0.08488359  0.00000000       0.041
   0.09801513  0.11317812  0.00000000       0.082
   0.14702269  0.14147265  0.00000000       0.041
   0.09801513  0.16976718  0.00000000       0.041
   0.00000000  0.00000000  0.05655619       0.014
   0.04900756  0.02829453  0.05655619       0.082
   0.09801513  0.05658906  0.05655619       0.082
   0.14702269  0.08488359  0.05655619       0.082
   0.04900756  0.08488359  0.05655619       0.082
   0.09801513  0.11317812  0.05655619       0.163
   0.14702269  0.14147265  0.05655619       0.082
   0.09801513  0.16976718  0.05655619       0.082

 k-points in reciprocal lattice and weights: K-Spacing Value to Generate K-Mesh: 0.03
   0.00000000  0.00000000  0.00000000       0.007
   0.14285714  0.00000000  0.00000000       0.041
   0.28571429  0.00000000  0.00000000       0.041
   0.42857143  0.00000000  0.00000000       0.041
   0.14285714  0.14285714  0.00000000       0.041
   0.28571429  0.14285714  0.00000000       0.082
   0.42857143  0.14285714  0.00000000       0.041
   0.28571429  0.28571429  0.00000000       0.041
   0.00000000  0.00000000  0.33333333       0.014
   0.14285714  0.00000000  0.33333333       0.082
   0.28571429  0.00000000  0.33333333       0.082
   0.42857143  0.00000000  0.33333333       0.082
   0.14285714  0.14285714  0.33333333       0.082
   0.28571429  0.14285714  0.33333333       0.163
   0.42857143  0.14285714  0.33333333       0.082
   0.28571429  0.28571429  0.33333333       0.082

 position of ions in fractional coordinates (direct lattice) 
   0.66666667  0.33333333  0.75000000
   0.33333333  0.66666667  0.25000000

 position of ions in cartesian coordinates  (Angst):
   1.45750098  0.84148858  4.42038232
   0.00000000  1.68297716  1.47346077



--------------------------------------------------------------------------------------------------------


 k-point   1 :   0.0000 0.0000 0.0000  plane waves:     479
 k-point   2 :   0.1429 0.0000 0.0000  plane waves:     495
 k-point   3 :   0.2857 0.0000 0.0000  plane waves:     511
 k-point   4 :   0.4286 0.0000 0.0000  plane waves:     525
 k-point   5 :   0.1429 0.1429 0.0000  plane waves:     506
 k-point   6 :   0.2857 0.1429 0.0000  plane waves:     509
 k-point   7 :   0.4286 0.1429 0.0000  plane waves:     512
 k-point   8 :   0.2857 0.2857 0.0000  plane waves:     512
 k-point   9 :   0.0000 0.0000 0.3333  plane waves:     490
 k-point  10 :   0.1429 0.0000 0.3333  plane waves:     501
 k-point  11 :   0.2857 0.0000 0.3333  plane waves:     514
 k-point  12 :   0.4286 0.0000 0.3333  plane waves:     516
 k-point  13 :   0.1429 0.1429 0.3333  plane waves:     508
 k-point  14 :   0.2857 0.1429 0.3333  plane waves:     515
 k-point  15 :   0.4286 0.1429 0.3333  plane waves:     515
 k-point  16 :   0.2857 0.2857 0.3333  plane waves:     512

 maximum and minimum number of plane-waves per node :       135      115

 maximum number of plane-waves:       525
 maximum index in each direction: 
   IXMAX=    4   IYMAX=    4   IZMAX=    8
   IXMIN=   -4   IYMIN=   -4   IZMIN=   -8


 real space projection operators:
  total allocation   :        901.12 KBytes
  max/ min on nodes  :        230.34        223.03


 parallel 3D FFT for wavefunctions:
    minimum data exchange during FFTs selected (reduces bandwidth)
 parallel 3D FFT for charge:
    minimum data exchange during FFTs selected (reduces bandwidth)


 total amount of memory used by VASP MPI-rank0    31449. kBytes
=======================================================================

   base      :      30000. kBytes
   nonlr-proj:        388. kBytes
   fftplans  :        234. kBytes
   grid      :        355. kBytes
   one-center:         31. kBytes
   wavefun   :        441. kBytes

     INWAV:  cpu time      0.0000: real time      0.0000
 Broyden mixing: mesh for mixing (old mesh)
   NGX =  9   NGY =  9   NGZ = 17
  (NGX  = 32   NGY  = 32   NGZ  = 72)
  gives a total of   1377 points

 initial charge density was supplied:
 charge density of overlapping atoms calculated
 number of electron      24.0000000 magnetization       2.0000000
 charge density for first step will be calculated from the start-wavefunctions


--------------------------------------------------------------------------------------------------------


 Maximum index for non-local projection operator          799
 Maximum index for augmentation-charges          183 (set IRDMAX)


--------------------------------------------------------------------------------------------------------


 First call to EWALD:  gamma=   0.504
 Maximum number of real-space cells 4x 4x 2
 Maximum number of reciprocal cells 2x 2x 4

    FEWALD:  cpu time      0.0007: real time      0.0007


--------------------------------------- Ionic step        1  -------------------------------------------




--------------------------------------- Iteration      1(   1)  ---------------------------------------


    POTLOK:  cpu time      0.0650: real time      0.0679
    SETDIJ:  cpu time      0.6961: real time      0.6986
    TRIAL :  cpu time      6.7756: real time      6.8173
    CORREC:  cpu time      0.0018: real time      0.0018
    --------------------------------------------
      LOOP:  cpu time      7.5403: real time      7.5898

 eigenvalue-minimisations  :  8544
 total energy-change (2. order) :-0.1368052E+01  (-0.1091772E+04)
 number of electron      24.0000000 magnetization       2.0000000
 augmentation part       24.0000000 magnetization       2.0000000

 Free energy of the ion-electron system (eV)
  ---------------------------------------------------
  alpha Z        PSCENC =       205.31264906
  Ewald energy   TEWEN  =     -2130.38490151
  -Hartree energ DENC   =      -630.01953068
  -exchange      EXHF   =         0.00000000
  -V(xc)+E(xc)   XCENC  =        13.91988599
  PAW double counting   =      2390.75912055    -2325.17731888
  entropy T*S    EENTRO =        -0.00617983
  eigenvalues    EBANDS =      -111.39883442
  atomic energy  EATOM  =      2585.62705738
  ---------------------------------------------------
  free energy    TOTEN  =        -1.36805234 eV

  energy without entropy =       -1.36187250  energy(sigma->0) =       -1.36496242


--------------------------------------------------------------------------------------------------------




--------------------------------------- Iteration      1(   2)  ---------------------------------------


    TRIAL :  cpu time      4.2697: real time      4.2966
    CORREC:  cpu time      0.0020: real time      0.0021
    --------------------------------------------
      LOOP:  cpu time      4.2822: real time      4.3217

 eigenvalue-minimisations  :  6816
 total energy-change (2. order) :-0.9777780E+00  (-0.9777768E+00)
 number of electron      24.0000000 magnetization       2.0000000
 augmentation part       24.0000000 magnetization       2.0000000

 Free energy of the ion-electron system (eV)
  ---------------------------------------------------
  alpha Z        PSCENC =       205.31264906
  Ewald energy   TEWEN  =     -2130.38490151
  -Hartree energ DENC   =      -630.01953068
  -exchange      EXHF   =         0.00000000
  -V(xc)+E(xc)   XCENC  =        13.91988599
  PAW double counting   =      2390.75912055    -2325.17731888
  entropy T*S    EENTRO =        -0.00621781
  eigenvalues    EBANDS =      -112.37657447
  atomic energy  EATOM  =      2585.62705738
  ---------------------------------------------------
  free energy    TOTEN  =        -2.34583037 eV

  energy without entropy =       -2.33961255  energy(sigma->0) =       -2.34272146


--------------------------------------------------------------------------------------------------------




--------------------------------------- Iteration      1(   3)  ---------------------------------------


    TRIAL :  cpu time     13.9488: real time     14.0226
    CORREC:  cpu time      0.0055: real time      0.0055
    --------------------------------------------
      LOOP:  cpu time     13.9630: real time     14.0517

 eigenvalue-minimisations  : 10848
 total energy-change (2. order) :-0.8365718E-04  (-0.8365730E-04)
 number of electron      24.0000000 magnetization       2.0000000
 augmentation part       24.0000000 magnetization       2.0000000

 Free energy of the ion-electron system (eV)
  ---------------------------------------------------
  alpha Z        PSCENC =       205.31264906
  Ewald energy   TEWEN  =     -2130.38490151
  -Hartree energ DENC   =      -630.01953068
  -exchange      EXHF   =         0.00000000
  -V(xc)+E(xc)   XCENC  =        13.91988599
  PAW double counting   =      2390.75912055    -2325.17731888
  entropy T*S    EENTRO =        -0.00621781
  eigenvalues    EBANDS =      -112.37665813
  atomic energy  EATOM  =      2585.62705738
  ---------------------------------------------------
  free energy    TOTEN  =        -2.34591403 eV

  energy without entropy =       -2.33969621  energy(sigma->0) =       -2.34280512


--------------------------------------------------------------------------------------------------------




--------------------------------------- Iteration      1(   4)  ---------------------------------------


    TRIAL :  cpu time      6.3086: real time      6.3365
    CORREC:  cpu time      0.0018: real time      0.0018
    --------------------------------------------
      LOOP:  cpu time      6.3229: real time      6.3617

 eigenvalue-minimisations  :  7296
 total energy-change (2. order) :-0.7071321E-09  (-0.5052397E-09)
 number of electron      24.0000000 magnetization       2.0000000
 augmentation part       24.0000000 magnetization       2.0000000

 Free energy of the ion-electron system (eV)
  ---------------------------------------------------
  alpha Z        PSCENC =       205.31264906
  Ewald energy   TEWEN  =     -2130.38490151
  -Hartree energ DENC   =      -630.01953068
  -exchange      EXHF   =         0.00000000
  -V(xc)+E(xc)   XCENC  =        13.91988599
  PAW double counting   =      2390.75912055    -2325.17731888
  entropy T*S    EENTRO =        -0.00621781
  eigenvalues    EBANDS =      -112.37665813
  atomic energy  EATOM  =      2585.62705738
  ---------------------------------------------------
  free energy    TOTEN  =        -2.34591403 eV

  energy without entropy =       -2.33969621  energy(sigma->0) =       -2.34280512


--------------------------------------------------------------------------------------------------------




--------------------------------------- Iteration      1(   5)  ---------------------------------------


    TRIAL :  cpu time     11.2049: real time     11.2522
    CORREC:  cpu time      0.0021: real time      0.0021
    CHARGE:  cpu time      0.0141: real time      0.0142
    --------------------------------------------
      LOOP:  cpu time     11.2384: real time     11.2969

 eigenvalue-minimisations  : 10368
 total energy-change (2. order) : 0.1332410E-09  (-0.4730954E-13)
 number of electron      24.0000028 magnetization       0.0372309
 augmentation part       11.2450327 magnetization       0.0214220

 Free energy of the ion-electron system (eV)
  ---------------------------------------------------
  alpha Z        PSCENC =       205.31264906
  Ewald energy   TEWEN  =     -2130.38490151
  -Hartree energ DENC   =      -630.01953068
  -exchange      EXHF   =         0.00000000
  -V(xc)+E(xc)   XCENC  =        13.91988599
  PAW double counting   =      2390.75912055    -2325.17731888
  entropy T*S    EENTRO =        -0.00621781
  eigenvalues    EBANDS =      -112.37665813
  atomic energy  EATOM  =      2585.62705738
  ---------------------------------------------------
  free energy    TOTEN  =        -2.34591403 eV

  energy without entropy =       -2.33969621  energy(sigma->0) =       -2.34280512


--------------------------------------------------------------------------------------------------------




--------------------------------------- Iteration      1(   6)  ---------------------------------------


    POTLOK:  cpu time      0.0467: real time      0.0470
    SETDIJ:  cpu time      0.6715: real time      0.6736
    TRIAL :  cpu time      0.8617: real time      0.8699
    CORREC:  cpu time      1.4865: real time      1.4929
    CHARGE:  cpu time      0.0127: real time      0.0128
    --------------------------------------------
      LOOP:  cpu time      3.0884: real time      3.1194

 eigenvalue-minimisations  :     0
 total energy-change (2. order) : 0.1083447E+00  (-0.1863369E+00)
 number of electron      24.0000028 magnetization       0.0230691
 augmentation part       11.3908299 magnetization       0.0130720

 Free energy of the ion-electron system (eV)
  ---------------------------------------------------
  alpha Z        PSCENC =       205.31264906
  Ewald energy   TEWEN  =     -2130.38490151
  -Hartree energ DENC   =      -596.78912271
  -exchange      EXHF   =         0.00000000
  -V(xc)+E(xc)   XCENC  =        12.45940828
  PAW double counting   =      2534.43718991    -2468.59926643
  entropy T*S    EENTRO =        -0.00484634
  eigenvalues    EBANDS =      -144.29436550
  atomic energy  EATOM  =      2585.62705738
  ---------------------------------------------------
  free energy    TOTEN  =        -2.23756933 eV

  energy without entropy =       -2.23272300  energy(sigma->0) =       -2.23514617


--------------------------------------------------------------------------------------------------------




--------------------------------------- Iteration      1(   7)  ---------------------------------------


    POTLOK:  cpu time      0.0443: real time      0.0446
    SETDIJ:  cpu time      0.6509: real time      0.6530
    TRIAL :  cpu time      1.0022: real time      1.0078
    CORREC:  cpu time      1.5030: real time      1.5094
    CHARGE:  cpu time      0.0128: real time      0.0129
    --------------------------------------------
      LOOP:  cpu time      3.2285: real time      3.2513

 eigenvalue-minimisations  :     0
 total energy-change (2. order) :-0.1892862E+00  (-0.1476796E-01)
 number of electron      24.0000028 magnetization       0.0125240
 augmentation part       11.3981765 magnetization       0.0073838

 Free energy of the ion-electron system (eV)
  ---------------------------------------------------
  alpha Z        PSCENC =       205.31264906
  Ewald energy   TEWEN  =     -2130.38490151
  -Hartree energ DENC   =      -611.38994322
  -exchange      EXHF   =         0.00000000
  -V(xc)+E(xc)   XCENC  =        13.00739228
  PAW double counting   =      2518.53299992    -2453.73378572
  entropy T*S    EENTRO =        -0.00403464
  eigenvalues    EBANDS =      -129.39347738
  atomic energy  EATOM  =      2585.62705738
  ---------------------------------------------------
  free energy    TOTEN  =        -2.42685551 eV

  energy without entropy =       -2.42282086  energy(sigma->0) =       -2.42483819


--------------------------------------------------------------------------------------------------------




--------------------------------------- Iteration      1(   8)  ---------------------------------------


    POTLOK:  cpu time      0.0431: real time      0.0434
    SETDIJ:  cpu time      0.6499: real time      0.6521
    TRIAL :  cpu time      0.8499: real time      0.8555
    CORREC:  cpu time      1.4723: real time      1.4784
    CHARGE:  cpu time      0.0128: real time      0.0129
    --------------------------------------------
      LOOP:  cpu time      3.0416: real time      3.0658

 eigenvalue-minimisations  :     0
 total energy-change (2. order) :-0.1480596E-01  (-0.7378282E-03)
 number of electron      24.0000028 magnetization       0.0016694
 augmentation part       11.3985161 magnetization       0.0010821

 Free energy of the ion-electron system (eV)
  ---------------------------------------------------
  alpha Z        PSCENC =       205.31264906
  Ewald energy   TEWEN  =     -2130.38490151
  -Hartree energ DENC   =      -613.16906952
  -exchange      EXHF   =         0.00000000
  -V(xc)+E(xc)   XCENC  =        13.07261830
  PAW double counting   =      2523.23407832    -2458.25495467
  entropy T*S    EENTRO =        -0.00374193
  eigenvalues    EBANDS =      -127.87510419
  atomic energy  EATOM  =      2585.62705738
  ---------------------------------------------------
  free energy    TOTEN  =        -2.44166147 eV

  energy without entropy =       -2.43791954  energy(sigma->0) =       -2.43979050


--------------------------------------------------------------------------------------------------------




--------------------------------------- Iteration      1(   9)  ---------------------------------------


    POTLOK:  cpu time      0.0431: real time      0.0433
    SETDIJ:  cpu time      0.6429: real time      0.6450
    TRIAL :  cpu time      0.8396: real time      0.8446
    CORREC:  cpu time      1.4638: real time      1.4698
    CHARGE:  cpu time      0.0128: real time      0.0128
    --------------------------------------------
      LOOP:  cpu time      3.0140: real time      3.0386

 eigenvalue-minimisations  :     0
 total energy-change (2. order) :-0.7645324E-03  (-0.4418664E-04)
 number of electron      24.0000028 magnetization       0.0003466
 augmentation part       11.3981443 magnetization       0.0003565

 Free energy of the ion-electron system (eV)
  ---------------------------------------------------
  alpha Z        PSCENC =       205.31264906
  Ewald energy   TEWEN  =     -2130.38490151
  -Hartree energ DENC   =      -613.11431049
  -exchange      EXHF   =         0.00000000
  -V(xc)+E(xc)   XCENC  =        13.07099913
  PAW double counting   =      2527.07685667    -2462.08414532
  entropy T*S    EENTRO =        -0.00373837
  eigenvalues    EBANDS =      -127.94288900
  atomic energy  EATOM  =      2585.62705738
  ---------------------------------------------------
  free energy    TOTEN  =        -2.44242600 eV

  energy without entropy =       -2.43868763  energy(sigma->0) =       -2.44055681


--------------------------------------------------------------------------------------------------------




--------------------------------------- Iteration      1(  10)  ---------------------------------------


    POTLOK:  cpu time      0.0432: real time      0.0437
    SETDIJ:  cpu time      0.6415: real time      0.6434
    TRIAL :  cpu time      0.8414: real time      0.8487
    CORREC:  cpu time      1.4592: real time      1.4668
    CHARGE:  cpu time      0.0126: real time      0.0127
    --------------------------------------------
      LOOP:  cpu time      3.0116: real time      3.0386

 eigenvalue-minimisations  :     0
 total energy-change (2. order) :-0.4457681E-04  (-0.2299007E-05)
 number of electron      24.0000028 magnetization       0.0000999
 augmentation part       11.3980650 magnetization       0.0001183

 Free energy of the ion-electron system (eV)
  ---------------------------------------------------
  alpha Z        PSCENC =       205.31264906
  Ewald energy   TEWEN  =     -2130.38490151
  -Hartree energ DENC   =      -613.07297947
  -exchange      EXHF   =         0.00000000
  -V(xc)+E(xc)   XCENC  =        13.06942482
  PAW double counting   =      2526.29861779    -2461.30457974
  entropy T*S    EENTRO =        -0.00373891
  eigenvalues    EBANDS =      -127.98402054
  atomic energy  EATOM  =      2585.62705738
  ---------------------------------------------------
  free energy    TOTEN  =        -2.44247058 eV

  energy without entropy =       -2.43873167  energy(sigma->0) =       -2.44060112


--------------------------------------------------------------------------------------------------------




--------------------------------------- Iteration      1(  11)  ---------------------------------------


    POTLOK:  cpu time      0.0440: real time      0.0445
    SETDIJ:  cpu time      0.6413: real time      0.6433
    TRIAL :  cpu time      0.8366: real time      0.8426
    CORREC:  cpu time      1.4608: real time      1.4684
    CHARGE:  cpu time      0.0135: real time      0.0136
    --------------------------------------------
      LOOP:  cpu time      3.0085: real time      3.0357

 eigenvalue-minimisations  :     0
 total energy-change (2. order) :-0.2411939E-05  (-0.5731568E-06)
 number of electron      24.0000028 magnetization      -0.0000214
 augmentation part       11.3980827 magnetization      -0.0000153

 Free energy of the ion-electron system (eV)
  ---------------------------------------------------
  alpha Z        PSCENC =       205.31264906
  Ewald energy   TEWEN  =     -2130.38490151
  -Hartree energ DENC   =      -613.06634165
  -exchange      EXHF   =         0.00000000
  -V(xc)+E(xc)   XCENC  =        13.06914826
  PAW double counting   =      2526.39729714    -2461.40280543
  entropy T*S    EENTRO =        -0.00373952
  eigenvalues    EBANDS =      -127.99083733
  atomic energy  EATOM  =      2585.62705738
  ---------------------------------------------------
  free energy    TOTEN  =        -2.44247299 eV

  energy without entropy =       -2.43873347  energy(sigma->0) =       -2.44060323


--------------------------------------------------------------------------------------------------------




--------------------------------------- Iteration      1(  12)  ---------------------------------------


    POTLOK:  cpu time      0.0432: real time      0.0434
    SETDIJ:  cpu time      0.6403: real time      0.6423
    TRIAL :  cpu time      0.8409: real time      0.8479
    CORREC:  cpu time      1.5820: real time      1.5902
    EDDIAG:  cpu time      0.4153: real time      0.4178
    CHARGE:  cpu time      0.0127: real time      0.0128
    --------------------------------------------
      LOOP:  cpu time      3.5487: real time      3.5807

 eigenvalue-minimisations  :     0
 total energy-change (2. order) :-0.5297688E-06  (-0.6248662E-07)
 number of electron      24.0000028 magnetization      -0.0000193
 augmentation part       11.3980905 magnetization      -0.0000230

 Free energy of the ion-electron system (eV)
  ---------------------------------------------------
  alpha Z        PSCENC =       205.31264906
  Ewald energy   TEWEN  =     -2130.38490151
  -Hartree energ DENC   =      -613.06985680
  -exchange      EXHF   =         0.00000000
  -V(xc)+E(xc)   XCENC  =        13.06926980
  PAW double counting   =      2526.43723695    -2461.44284763
  entropy T*S    EENTRO =        -0.00373946
  eigenvalues    EBANDS =      -127.98734125
  atomic energy  EATOM  =      2585.62705738
  ---------------------------------------------------
  free energy    TOTEN  =        -2.44247352 eV

  energy without entropy =       -2.43873406  energy(sigma->0) =       -2.44060379


--------------------------------------------------------------------------------------------------------


  average scaling for gradient   1.4227


 average (electrostatic) potential at core
  the test charge radii are     1.0698
  (the norm of the test charge is              1.0000)
       1 -39.3709       2 -39.3709



 E-fermi :   2.6056     XC(G=0): -11.1659     alpha+bet : -6.7831

 Fermi energy:         2.6055891326

 spin component 1

 k-point     1 :       0.0000    0.0000    0.0000
  band No.  band energies     occupation 
      1      -7.1915      1.00000
      2      -7.0168      1.00000
      3      -6.4730      1.00000
      4      -6.4730      1.00000
      5      -6.4375      1.00000
      6      -6.4375      1.00000
      7      -6.0382      1.00000
      8      -5.8088      1.00000
      9      -5.8088      1.00000
     10      -5.6367      1.00000
     11      -5.6367      1.00000
     12      -0.9941      1.00000
     13      -0.4969      1.00000
     14      11.5248      0.00000
     15      15.9719      0.00000
     16      17.8334      0.00000
     17      18.7744      0.00000
     18      18.7744      0.00000
     19      18.9358      0.00000
     20      20.3172      0.00000
     21      20.3172      0.00000
     22      22.6544      0.00000
     23      23.1512      0.00000
     24      23.1512      0.00000
     25      23.6079      0.00000
     26      24.5157      0.00000
     27      24.5157      0.00000
     28      24.6855      0.00000
     29      24.6855      0.00000
     30      25.6821      0.00000
     31      25.6821      0.00000
     32      26.1305      0.00000
     33      30.3248      0.00000
     34      31.8335      0.00000
     35      34.8725      0.00000
     36      34.8725      0.00000
     37      35.1223      0.00000
     38      35.7232      0.00000
     39      36.1964      0.00000
     40      36.1964      0.00000
     41      36.8173      0.00000
     42      36.8173      0.00000
     43      38.5454      0.00000
     44      38.9159      0.00000
     45      38.9159      0.00000
     46      40.0693      0.00000
     47      47.3553      0.00000
     48      51.6294      0.00000
     49      51.6294      0.00000
     50      52.9451      0.00000
     51      54.0190      0.00000
     52      54.0190      0.00000
     53      54.5977      0.00000
     54      55.5315      0.00000
     55      55.5315      0.00000
     56      55.8566      0.00000
     57      55.8566      0.00000
     58      56.1650      0.00000
     59      56.1650      0.00000
     60      57.5835      0.00000
     61      58.9990      0.00000
     62      59.0284      0.00000
     63      59.4494      0.00000
     64      59.6366      0.00000
     65      59.6366      0.00000
     66      60.7101      0.00000
     67      62.8857      0.00000
     68      66.7981      0.00000
     69      66.7982      0.00000
     70      67.6710      0.00000
     71      67.6710      0.00000
     72      67.9510      0.00000
     73      69.2186      0.00000
     74      69.9017      0.00000
     75      70.3767      0.00000
     76      70.3767      0.00000
     77      70.3977      0.00000
     78      70.4688      0.00000
     79      70.4688      0.00000
     80      71.5768      0.00000
     81      71.5768      0.00000
     82      71.9476      0.00000
     83      75.3521      0.00000
     84      75.3521      0.00000
     85      75.6211      0.00000
     86      76.5160      0.00000
     87      76.5160      0.00000
     88      77.0200      0.00000
     89      78.4140      0.00000
     90      80.8100      0.00000
     91      81.2140      0.00000
     92      81.2141      0.00000
     93      81.5601      0.00000
     94      81.6645      0.00000
     95      81.6649      0.00000
     96      81.7178      0.00000

 k-point     2 :       0.1429    0.0000    0.0000
  band No.  band energies     occupation 
      1      -6.9876      1.00000
      2      -6.8150      1.00000
      3      -6.5529      1.00000
      4      -6.4764      1.00000
      5      -6.2668      1.00000
      6      -6.2357      1.00000
      7      -6.0102      1.00000
      8      -5.8807      1.00000
      9      -5.8678      1.00000
     10      -5.6466      1.00000
     11      -5.5815      1.00000
     12      -0.6766      1.00000
     13       0.3009      1.00000
     14      12.2190      0.00000
     15      13.5593      0.00000
     16      15.9836      0.00000
     17      16.1651      0.00000
     18      17.2032      0.00000
     19      18.0111      0.00000
     20      18.2657      0.00000
     21      20.2566      0.00000
     22      20.4375      0.00000
     23      20.5475      0.00000
     24      21.8289      0.00000
     25      24.2698      0.00000
     26      25.3815      0.00000
     27      26.8400      0.00000
     28      27.2112      0.00000
     29      27.3478      0.00000
     30      28.9392      0.00000
     31      29.2403      0.00000
     32      30.1234      0.00000
     33      30.5165      0.00000
     34      31.6455      0.00000
     35      32.3929      0.00000
     36      33.0321      0.00000
     37      33.3020      0.00000
     38      34.7922      0.00000
     39      34.9261      0.00000
     40      35.6860      0.00000
     41      39.2152      0.00000
     42      39.8393      0.00000
     43      40.3230      0.00000
     44      40.6301      0.00000
     45      43.7302      0.00000
     46      43.7854      0.00000
     47      47.3403      0.00000
     48      49.4108      0.00000
     49      49.5634      0.00000
     50      51.2899      0.00000
     51      52.3507      0.00000
     52      53.3744      0.00000
     53      54.6008      0.00000
     54      54.8208      0.00000
     55      55.1285      0.00000
     56      55.5150      0.00000
     57      56.2178      0.00000
     58      56.2399      0.00000
     59      56.5517      0.00000
     60      57.5371      0.00000
     61      57.7723      0.00000
     62      58.1358      0.00000
     63      58.7510      0.00000
     64      60.5610      0.00000
     65      60.7229      0.00000
     66      61.0153      0.00000
     67      61.6722      0.00000
     68      61.7963      0.00000
     69      63.3281      0.00000
     70      65.2470      0.00000
     71      65.3112      0.00000
     72      66.0079      0.00000
     73      67.8004      0.00000
     74      68.7686      0.00000
     75      69.0350      0.00000
     76      70.0642      0.00000
     77      70.3208      0.00000
     78      70.6968      0.00000
     79      71.5019      0.00000
     80      72.0404      0.00000
     81      72.8727      0.00000
     82      73.3666      0.00000
     83      74.5641      0.00000
     84      75.2751      0.00000
     85      75.7745      0.00000
     86      77.0321      0.00000
     87      78.1612      0.00000
     88      78.3508      0.00000
     89      78.4991      0.00000
     90      78.7054      0.00000
     91      78.9857      0.00000
     92      79.6035      0.00000
     93      80.0945      0.00000
     94      80.7398      0.00000
     95      80.9498      0.00000
     96      81.1630      0.00000

 k-point     3 :       0.2857    0.0000    0.0000
  band No.  band energies     occupation 
      1      -7.0788      1.00000
      2      -6.9290      1.00000
      3      -6.5039      1.00000
      4      -6.3257      1.00000
      5      -6.2090      1.00000
      6      -6.1061      1.00000
      7      -5.9862      1.00000
      8      -5.7741      1.00000
      9      -5.7555      1.00000
     10      -5.6821      1.00000
     11      -3.8719      1.00000
     12       0.5029      1.00000
     13       2.2846      0.98836
     14       8.0752      0.00000
     15      12.1077      0.00000
     16      12.6021      0.00000
     17      13.5972      0.00000
     18      14.8856      0.00000
     19      16.6527      0.00000
     20      17.1508      0.00000
     21      17.7134      0.00000
     22      18.1266      0.00000
     23      20.6638      0.00000
     24      21.1930      0.00000
     25      25.7870      0.00000
     26      25.8699      0.00000
     27      28.3240      0.00000
     28      28.8057      0.00000
     29      30.1529      0.00000
     30      30.2647      0.00000
     31      30.3017      0.00000
     32      30.8606      0.00000
     33      32.2459      0.00000
     34      34.0150      0.00000
     35      34.6771      0.00000
     36      34.9470      0.00000
     37      35.4005      0.00000
     38      36.1029      0.00000
     39      38.3325      0.00000
     40      39.2720      0.00000
     41      41.3789      0.00000
     42      42.2114      0.00000
     43      44.3375      0.00000
     44      44.8142      0.00000
     45      45.3334      0.00000
     46      46.2465      0.00000
     47      46.3336      0.00000
     48      47.8036      0.00000
     49      48.8859      0.00000
     50      49.3000      0.00000
     51      49.7946      0.00000
     52      50.4356      0.00000
     53      50.7207      0.00000
     54      51.2027      0.00000
     55      52.3704      0.00000
     56      53.5618      0.00000
     57      54.3931      0.00000
     58      55.1111      0.00000
     59      56.0481      0.00000
     60      56.3018      0.00000
     61      56.6142      0.00000
     62      57.0008      0.00000
     63      57.6942      0.00000
     64      59.2330      0.00000
     65      59.6161      0.00000
     66      60.4491      0.00000
     67      60.6694      0.00000
     68      61.5900      0.00000
     69      62.0419      0.00000
     70      64.1178      0.00000
     71      64.7904      0.00000
     72      66.1556      0.00000
     73      67.2152      0.00000
     74      67.6175      0.00000
     75      68.2186      0.00000
     76      68.2314      0.00000
     77      69.1361      0.00000
     78      69.3964      0.00000
     79      70.5470      0.00000
     80      70.9781      0.00000
     81      71.7113      0.00000
     82      71.9435      0.00000
     83      72.2370      0.00000
     84      72.4477      0.00000
     85      74.5268      0.00000
     86      74.9437      0.00000
     87      75.0349      0.00000
     88      77.0328      0.00000
     89      77.6139      0.00000
     90      77.9840      0.00000
     91      79.1029      0.00000
     92      79.5562      0.00000
     93      79.5655      0.00000
     94      80.4719      0.00000
     95      80.7148      0.00000
     96      80.9286      0.00000

 k-point     4 :       0.4286    0.0000    0.0000
  band No.  band energies     occupation 
      1      -7.2973      1.00000
      2      -7.1555      1.00000
      3      -6.8258      1.00000
      4      -6.4392      1.00000
      5      -6.0737      1.00000
      6      -6.0642      1.00000
      7      -5.7243      1.00000
      8      -5.7166      1.00000
      9      -5.3479      1.00000
     10      -5.3349      1.00000
     11      -0.9447      1.00000
     12       2.4706      0.83010
     13       3.7283      0.00000
     14       4.9093      0.00000
     15       7.2201      0.00000
     16       8.9579      0.00000
     17      12.1161      0.00000
     18      15.9899      0.00000
     19      16.3469      0.00000
     20      16.9648      0.00000
     21      17.6473      0.00000
     22      18.3410      0.00000
     23      20.0945      0.00000
     24      20.7765      0.00000
     25      21.7028      0.00000
     26      23.2098      0.00000
     27      28.5829      0.00000
     28      29.0127      0.00000
     29      32.3268      0.00000
     30      32.7185      0.00000
     31      33.4229      0.00000
     32      34.0806      0.00000
     33      36.6014      0.00000
     34      37.0466      0.00000
     35      37.2048      0.00000
     36      37.4167      0.00000
     37      39.1376      0.00000
     38      39.1853      0.00000
     39      41.1102      0.00000
     40      41.3482      0.00000
     41      41.7998      0.00000
     42      42.3645      0.00000
     43      43.9811      0.00000
     44      44.1878      0.00000
     45      44.3581      0.00000
     46      45.0308      0.00000
     47      46.2396      0.00000
     48      46.5021      0.00000
     49      47.3695      0.00000
     50      47.7229      0.00000
     51      48.0932      0.00000
     52      49.7747      0.00000
     53      50.7987      0.00000
     54      51.1506      0.00000
     55      51.6292      0.00000
     56      51.8910      0.00000
     57      52.8687      0.00000
     58      54.2874      0.00000
     59      54.3561      0.00000
     60      55.2362      0.00000
     61      55.6290      0.00000
     62      56.6802      0.00000
     63      56.6824      0.00000
     64      56.8805      0.00000
     65      57.6177      0.00000
     66      57.9598      0.00000
     67      60.0021      0.00000
     68      60.9170      0.00000
     69      61.3827      0.00000
     70      61.5158      0.00000
     71      65.5657      0.00000
     72      65.9463      0.00000
     73      66.4685      0.00000
     74      67.2621      0.00000
     75      67.7838      0.00000
     76      68.2930      0.00000
     77      69.0130      0.00000
     78      69.4587      0.00000
     79      70.5514      0.00000
     80      71.2701      0.00000
     81      71.4083      0.00000
     82      71.9778      0.00000
     83      72.3526      0.00000
     84      72.6544      0.00000
     85      73.3188      0.00000
     86      74.3408      0.00000
     87      74.9462      0.00000
     88      75.9574      0.00000
     89      76.0939      0.00000
     90      76.3118      0.00000
     91      76.5025      0.00000
     92      77.1956      0.00000
     93      77.4301      0.00000
     94      77.6561      0.00000
     95      80.1020      0.00000
     96      80.2062      0.00000

 k-point     5 :       0.1429    0.1429    0.0000
  band No.  band energies     occupation 
      1      -6.7369      1.00000
      2      -6.7229      1.00000
      3      -6.5787      1.00000
      4      -6.5123      1.00000
      5      -6.3268      1.00000
      6      -6.1790      1.00000
      7      -6.0299      1.00000
      8      -5.9124      1.00000
      9      -5.8426      1.00000
     10      -5.7147      1.00000
     11      -4.3889      1.00000
     12       0.0930      1.00000
     13       1.6759      1.00000
     14      10.8957      0.00000
     15      11.2130      0.00000
     16      13.3479      0.00000
     17      14.8361      0.00000
     18      15.3012      0.00000
     19      15.8508      0.00000
     20      15.9862      0.00000
     21      17.2964      0.00000
     22      20.5149      0.00000
     23      21.7885      0.00000
     24      24.5505      0.00000
     25      25.2242      0.00000
     26      25.5528      0.00000
     27      26.5896      0.00000
     28      27.6362      0.00000
     29      28.7510      0.00000
     30      29.0327      0.00000
     31      29.1115      0.00000
     32      31.1482      0.00000
     33      32.0609      0.00000
     34      33.7447      0.00000
     35      34.5922      0.00000
     36      34.8104      0.00000
     37      34.8164      0.00000
     38      36.6127      0.00000
     39      36.8658      0.00000
     40      37.5734      0.00000
     41      39.3017      0.00000
     42      41.1372      0.00000
     43      42.5903      0.00000
     44      45.4016      0.00000
     45      45.9033      0.00000
     46      46.4516      0.00000
     47      46.9395      0.00000
     48      47.2602      0.00000
     49      48.3268      0.00000
     50      48.9845      0.00000
     51      49.5395      0.00000
     52      51.0520      0.00000
     53      52.3464      0.00000
     54      53.6681      0.00000
     55      54.4117      0.00000
     56      54.6634      0.00000
     57      55.1892      0.00000
     58      55.2045      0.00000
     59      55.5940      0.00000
     60      57.1730      0.00000
     61      57.5192      0.00000
     62      57.8430      0.00000
     63      59.4492      0.00000
     64      59.9431      0.00000
     65      60.5126      0.00000
     66      61.1410      0.00000
     67      61.3747      0.00000
     68      61.6022      0.00000
     69      61.9848      0.00000
     70      62.6003      0.00000
     71      63.6594      0.00000
     72      63.9065      0.00000
     73      65.1288      0.00000
     74      65.4118      0.00000
     75      66.9156      0.00000
     76      68.7714      0.00000
     77      68.9103      0.00000
     78      70.6645      0.00000
     79      70.9657      0.00000
     80      71.5361      0.00000
     81      73.3487      0.00000
     82      73.5256      0.00000
     83      73.6639      0.00000
     84      73.8485      0.00000
     85      74.4298      0.00000
     86      76.6528      0.00000
     87      76.6860      0.00000
     88      77.4267      0.00000
     89      77.8431      0.00000
     90      78.3766      0.00000
     91      78.7786      0.00000
     92      79.3584      0.00000
     93      80.1463      0.00000
     94      80.1798      0.00000
     95      80.8896      0.00000
     96      82.3351      0.00000

 k-point     6 :       0.2857    0.1429    0.0000
  band No.  band energies     occupation 
      1      -6.9813      1.00000
      2      -6.8344      1.00000
      3      -6.6749      1.00000
      4      -6.3706      1.00000
      5      -6.2456      1.00000
      6      -6.0873      1.00000
      7      -6.0489      1.00000
      8      -5.7960      1.00000
      9      -5.7559      1.00000
     10      -5.4704      1.00000
     11      -1.9959      1.00000
     12       1.9915      0.99999
     13       3.9944      0.00000
     14       5.9153      0.00000
     15       9.2658      0.00000
     16      10.0320      0.00000
     17      11.1064      0.00000
     18      13.4493      0.00000
     19      14.3643      0.00000
     20      16.4863      0.00000
     21      17.9946      0.00000
     22      20.3204      0.00000
     23      23.3536      0.00000
     24      23.3574      0.00000
     25      24.6395      0.00000
     26      25.2623      0.00000
     27      26.1628      0.00000
     28      26.8021      0.00000
     29      27.7117      0.00000
     30      30.0688      0.00000
     31      31.7787      0.00000
     32      34.9878      0.00000
     33      35.4657      0.00000
     34      36.1229      0.00000
     35      37.2144      0.00000
     36      38.0090      0.00000
     37      38.8607      0.00000
     38      39.8835      0.00000
     39      39.8986      0.00000
     40      41.0729      0.00000
     41      41.2603      0.00000
     42      42.3823      0.00000
     43      43.1796      0.00000
     44      43.8807      0.00000
     45      44.7557      0.00000
     46      44.7577      0.00000
     47      46.5358      0.00000
     48      46.6145      0.00000
     49      47.1036      0.00000
     50      48.0855      0.00000
     51      49.6096      0.00000
     52      50.4865      0.00000
     53      51.9792      0.00000
     54      52.1645      0.00000
     55      52.8595      0.00000
     56      53.6170      0.00000
     57      53.6221      0.00000
     58      54.5131      0.00000
     59      54.5423      0.00000
     60      55.0895      0.00000
     61      56.9420      0.00000
     62      57.0764      0.00000
     63      57.1789      0.00000
     64      58.5246      0.00000
     65      58.8256      0.00000
     66      60.3029      0.00000
     67      60.6752      0.00000
     68      61.2646      0.00000
     69      61.9266      0.00000
     70      62.6553      0.00000
     71      62.7320      0.00000
     72      62.7923      0.00000
     73      63.5628      0.00000
     74      64.5254      0.00000
     75      65.4597      0.00000
     76      66.8988      0.00000
     77      68.0707      0.00000
     78      68.5922      0.00000
     79      69.3515      0.00000
     80      69.9166      0.00000
     81      70.9407      0.00000
     82      71.1426      0.00000
     83      72.4438      0.00000
     84      73.5119      0.00000
     85      73.5904      0.00000
     86      74.6921      0.00000
     87      75.8654      0.00000
     88      75.8873      0.00000
     89      76.6359      0.00000
     90      77.3433      0.00000
     91      77.5053      0.00000
     92      77.6293      0.00000
     93      78.9433      0.00000
     94      78.9455      0.00000
     95      81.0132      0.00000
     96      81.3596      0.00000

 k-point     7 :       0.4286    0.1429    0.0000
  band No.  band energies     occupation 
      1      -7.0964      1.00000
      2      -6.9421      1.00000
      3      -6.8066      1.00000
      4      -6.4326      1.00000
      5      -6.1869      1.00000
      6      -6.0314      1.00000
      7      -5.8296      1.00000
      8      -5.7706      1.00000
      9      -5.5036      1.00000
     10      -5.5033      1.00000
     11       1.2138      1.00000
     12       1.6291      1.00000
     13       4.9125      0.00000
     14       5.9517      0.00000
     15       6.2889      0.00000
     16       8.1915      0.00000
     17       8.7845      0.00000
     18      12.7936      0.00000
     19      13.9693      0.00000
     20      19.0116      0.00000
     21      19.0345      0.00000
     22      20.0570      0.00000
     23      20.6295      0.00000
     24      21.3685      0.00000
     25      23.8266      0.00000
     26      25.5108      0.00000
     27      25.9623      0.00000
     28      26.3083      0.00000
     29      32.0948      0.00000
     30      32.8240      0.00000
     31      34.7544      0.00000
     32      35.4629      0.00000
     33      35.7285      0.00000
     34      36.6703      0.00000
     35      36.9903      0.00000
     36      37.0929      0.00000
     37      39.2861      0.00000
     38      40.1053      0.00000
     39      40.3447      0.00000
     40      41.8375      0.00000
     41      43.2586      0.00000
     42      43.8154      0.00000
     43      43.9962      0.00000
     44      44.2374      0.00000
     45      45.1988      0.00000
     46      46.2549      0.00000
     47      46.3687      0.00000
     48      47.3594      0.00000
     49      48.0932      0.00000
     50      48.3674      0.00000
     51      48.4917      0.00000
     52      48.7485      0.00000
     53      49.7686      0.00000
     54      49.9447      0.00000
     55      50.7287      0.00000
     56      53.0253      0.00000
     57      54.2188      0.00000
     58      54.3926      0.00000
     59      54.8970      0.00000
     60      55.4597      0.00000
     61      55.7686      0.00000
     62      56.2046      0.00000
     63      56.4482      0.00000
     64      57.9795      0.00000
     65      58.3499      0.00000
     66      58.3848      0.00000
     67      59.8859      0.00000
     68      60.8531      0.00000
     69      61.2720      0.00000
     70      61.4276      0.00000
     71      62.1135      0.00000
     72      63.9967      0.00000
     73      64.0139      0.00000
     74      64.5141      0.00000
     75      66.1817      0.00000
     76      66.4737      0.00000
     77      66.8695      0.00000
     78      67.7263      0.00000
     79      68.5856      0.00000
     80      70.5723      0.00000
     81      70.6300      0.00000
     82      71.5577      0.00000
     83      71.9188      0.00000
     84      72.2130      0.00000
     85      73.1111      0.00000
     86      73.3503      0.00000
     87      73.9083      0.00000
     88      74.7955      0.00000
     89      75.0059      0.00000
     90      75.7428      0.00000
     91      77.4256      0.00000
     92      78.6611      0.00000
     93      79.0875      0.00000
     94      79.4445      0.00000
     95      80.1907      0.00000
     96      81.2368      0.00000

 k-point     8 :       0.2857    0.2857    0.0000
  band No.  band energies     occupation 
      1      -6.6904      1.00000
      2      -6.6007      1.00000
      3      -6.5422      1.00000
      4      -6.4101      1.00000
      5      -6.2835      1.00000
      6      -6.1878      1.00000
      7      -6.0625      1.00000
      8      -5.9749      1.00000
      9      -5.9403      1.00000
     10      -5.5916      1.00000
     11       0.9481      1.00000
     12       4.4820      0.00000
     13       4.8783      0.00000
     14       4.9522      0.00000
     15       6.5355      0.00000
     16       8.7364      0.00000
     17       8.7780      0.00000
     18       9.6630      0.00000
     19      11.1083      0.00000
     20      19.1733      0.00000
     21      19.3227      0.00000
     22      22.6112      0.00000
     23      22.7607      0.00000
     24      22.9389      0.00000
     25      23.0759      0.00000
     26      25.7988      0.00000
     27      26.3219      0.00000
     28      29.2776      0.00000
     29      29.4628      0.00000
     30      30.7970      0.00000
     31      31.0444      0.00000
     32      32.3320      0.00000
     33      35.3442      0.00000
     34      36.5253      0.00000
     35      37.7785      0.00000
     36      38.9214      0.00000
     37      40.3918      0.00000
     38      40.9938      0.00000
     39      41.7220      0.00000
     40      42.0366      0.00000
     41      43.0479      0.00000
     42      43.8484      0.00000
     43      44.4452      0.00000
     44      44.4812      0.00000
     45      44.5391      0.00000
     46      45.5298      0.00000
     47      46.7630      0.00000
     48      47.8467      0.00000
     49      48.6308      0.00000
     50      48.8469      0.00000
     51      49.6474      0.00000
     52      50.1309      0.00000
     53      50.4177      0.00000
     54      50.8544      0.00000
     55      53.2094      0.00000
     56      53.4636      0.00000
     57      53.4740      0.00000
     58      53.8321      0.00000
     59      54.9294      0.00000
     60      55.7163      0.00000
     61      55.8392      0.00000
     62      56.6172      0.00000
     63      56.8806      0.00000
     64      57.5565      0.00000
     65      58.2185      0.00000
     66      58.5655      0.00000
     67      59.8252      0.00000
     68      60.1042      0.00000
     69      61.1829      0.00000
     70      61.8821      0.00000
     71      62.0134      0.00000
     72      62.9045      0.00000
     73      63.0424      0.00000
     74      63.2540      0.00000
     75      63.6470      0.00000
     76      64.7538      0.00000
     77      65.2995      0.00000
     78      67.2656      0.00000
     79      67.6277      0.00000
     80      68.6872      0.00000
     81      68.6978      0.00000
     82      69.9040      0.00000
     83      70.0220      0.00000
     84      70.6071      0.00000
     85      71.3198      0.00000
     86      72.7399      0.00000
     87      73.0760      0.00000
     88      74.5306      0.00000
     89      75.7035      0.00000
     90      76.7897      0.00000
     91      77.8267      0.00000
     92      77.8338      0.00000
     93      79.5896      0.00000
     94      80.1337      0.00000
     95      82.2465      0.00000
     96      83.4040      0.00000

 k-point     9 :       0.0000    0.0000    0.3333
  band No.  band energies     occupation 
      1      -7.1476      1.00000
      2      -7.0598      1.00000
      3      -6.4691      1.00000
      4      -6.4691      1.00000
      5      -6.4510      1.00000
      6      -6.4510      1.00000
      7      -5.7605      1.00000
      8      -5.7605      1.00000
      9      -5.6748      1.00000
     10      -5.6748      1.00000
     11      -5.4365      1.00000
     12      -3.6537      1.00000
     13       3.1495      0.00006
     14       7.7878      0.00000
     15      17.9339      0.00000
     16      18.4476      0.00000
     17      19.1768      0.00000
     18      19.1768      0.00000
     19      20.0134      0.00000
     20      20.0134      0.00000
     21      20.1565      0.00000
     22      22.6276      0.00000
     23      22.6276      0.00000
     24      22.6991      0.00000
     25      22.6991      0.00000
     26      23.3754      0.00000
     27      24.1077      0.00000
     28      25.5654      0.00000
     29      27.0810      0.00000
     30      27.0810      0.00000
     31      27.4905      0.00000
     32      27.4905      0.00000
     33      27.5481      0.00000
     34      29.0213      0.00000
     35      31.7800      0.00000
     36      31.7800      0.00000
     37      32.9415      0.00000
     38      32.9415      0.00000
     39      34.9512      0.00000
     40      36.3955      0.00000
     41      40.8512      0.00000
     42      40.8512      0.00000
     43      41.3445      0.00000
     44      42.1333      0.00000
     45      42.1333      0.00000
     46      43.7126      0.00000
     47      48.0239      0.00000
     48      48.8542      0.00000
     49      48.8542      0.00000
     50      48.9824      0.00000
     51      48.9824      0.00000
     52      49.7006      0.00000
     53      53.0291      0.00000
     54      53.4902      0.00000
     55      55.5168      0.00000
     56      55.5168      0.00000
     57      55.5938      0.00000
     58      55.5938      0.00000
     59      57.8731      0.00000
     60      58.5655      0.00000
     61      58.7136      0.00000
     62      62.4122      0.00000
     63      62.4122      0.00000
     64      62.5887      0.00000
     65      62.5887      0.00000
     66      63.7635      0.00000
     67      66.4952      0.00000
     68      66.4952      0.00000
     69      67.2846      0.00000
     70      67.2846      0.00000
     71      67.5393      0.00000
     72      68.2848      0.00000
     73      68.4033      0.00000
     74      68.4033      0.00000
     75      69.3132      0.00000
     76      70.8512      0.00000
     77      70.8512      0.00000
     78      71.1378      0.00000
     79      71.4294      0.00000
     80      72.6530      0.00000
     81      72.6530      0.00000
     82      72.7736      0.00000
     83      74.1173      0.00000
     84      74.1173      0.00000
     85      74.5793      0.00000
     86      74.5793      0.00000
     87      74.7171      0.00000
     88      76.0210      0.00000
     89      76.6171      0.00000
     90      76.6171      0.00000
     91      78.9039      0.00000
     92      78.9367      0.00000
     93      78.9367      0.00000
     94      81.0269      0.00000
     95      81.3530      0.00000
     96      82.0384      0.00000

 k-point    10 :       0.1429    0.0000    0.3333
  band No.  band energies     occupation 
      1      -6.9430      1.00000
      2      -6.8556      1.00000
      3      -6.5382      1.00000
      4      -6.5053      1.00000
      5      -6.2659      1.00000
      6      -6.2497      1.00000
      7      -6.0158      1.00000
      8      -5.9504      1.00000
      9      -5.8057      1.00000
     10      -5.6963      1.00000
     11      -4.8954      1.00000
     12      -3.1035      1.00000
     13       3.7072      0.00000
     14       8.3332      0.00000
     15      14.0602      0.00000
     16      15.5063      0.00000
     17      16.7523      0.00000
     18      17.6724      0.00000
     19      18.4407      0.00000
     20      18.5602      0.00000
     21      20.2526      0.00000
     22      21.5178      0.00000
     23      22.9132      0.00000
     24      24.4269      0.00000
     25      24.7451      0.00000
     26      24.7619      0.00000
     27      25.0568      0.00000
     28      25.8859      0.00000
     29      26.6325      0.00000
     30      27.6277      0.00000
     31      28.3231      0.00000
     32      28.8088      0.00000
     33      29.0630      0.00000
     34      29.9515      0.00000
     35      31.7523      0.00000
     36      33.0766      0.00000
     37      34.9693      0.00000
     38      35.1201      0.00000
[...]
     40      42.6625      0.00000
     41      42.7477      0.00000
     42      43.6180      0.00000
     43      44.0888      0.00000
     44      44.2955      0.00000
     45      45.2385      0.00000
     46      46.3050      0.00000
     47      47.2931      0.00000
     48      48.6036      0.00000
     49      48.8516      0.00000
     50      49.2252      0.00000
     51      50.9846      0.00000
     52      51.5759      0.00000
     53      52.1873      0.00000
     54      52.5380      0.00000
     55      52.6265      0.00000
     56      53.3547      0.00000
     57      54.1556      0.00000
     58      54.8145      0.00000
     59      55.1994      0.00000
     60      55.6674      0.00000
     61      57.2050      0.00000
     62      57.6433      0.00000
     63      58.2964      0.00000
     64      58.9177      0.00000
     65      59.1015      0.00000
     66      60.7054      0.00000
     67      60.8299      0.00000
     68      61.5057      0.00000
     69      61.6382      0.00000
     70      62.2986      0.00000
     71      62.4232      0.00000
     72      64.0679      0.00000
     73      64.6874      0.00000
     74      65.7533      0.00000
     75      66.8455      0.00000
     76      67.0557      0.00000
     77      67.4818      0.00000
     78      68.6625      0.00000
     79      70.0197      0.00000
     80      71.4442      0.00000
     81      71.6022      0.00000
     82      71.8909      0.00000
     83      73.3606      0.00000
     84      74.9287      0.00000
     85      75.5751      0.00000
     86      75.8509      0.00000
     87      77.0206      0.00000
     88      77.2133      0.00000
     89      78.1140      0.00000
     90      78.5766      0.00000
     91      80.0016      0.00000
     92      81.2322      0.00000
     93      82.1197      0.00000
     94      82.1794      0.00000
     95      82.8662      0.00000
     96      85.9492      0.00000

 k-point    16 :       0.2857    0.2857    0.3333
  band No.  band energies     occupation 
      1      -6.5479      1.00000
      2      -6.4425      1.00000
      3      -6.3798      1.00000
      4      -6.2622      1.00000
      5      -6.2498      1.00000
      6      -5.9471      1.00000
      7      -5.8927      1.00000
      8      -5.8143      1.00000
      9      -5.5301      1.00000
     10      -5.3706      1.00000
     11       1.4289      1.00000
     12       3.1131      0.04840
     13       5.0299      0.00000
     14       5.4381      0.00000
     15       6.7418      0.00000
     16       7.0677      0.00000
     17      10.2073      0.00000
     18      12.6154      0.00000
     19      14.0018      0.00000
     20      16.3527      0.00000
     21      18.5400      0.00000
     22      19.1060      0.00000
     23      25.4117      0.00000
     24      26.0462      0.00000
     25      27.4842      0.00000
     26      27.5235      0.00000
     27      27.9221      0.00000
     28      29.6145      0.00000
     29      30.2027      0.00000
     30      32.4013      0.00000
     31      32.9928      0.00000
     32      33.9242      0.00000
     33      33.9961      0.00000
     34      34.6403      0.00000
     35      37.0220      0.00000
     36      37.0819      0.00000
     37      39.7338      0.00000
     38      40.2946      0.00000
     39      40.8731      0.00000
     40      43.1123      0.00000
     41      43.5346      0.00000
     42      44.0490      0.00000
     43      46.3706      0.00000
     44      46.4088      0.00000
     45      47.6829      0.00000
     46      48.4634      0.00000
     47      48.6301      0.00000
     48      49.4263      0.00000
     49      49.8112      0.00000
     50      50.9546      0.00000
     51      51.9243      0.00000
     52      51.9783      0.00000
     53      52.6460      0.00000
     54      52.6502      0.00000
     55      52.7455      0.00000
     56      52.8293      0.00000
     57      53.8864      0.00000
     58      53.9398      0.00000
     59      54.9369      0.00000
     60      55.8254      0.00000
     61      56.1795      0.00000
     62      56.7320      0.00000
     63      57.1274      0.00000
     64      57.7898      0.00000
     65      58.4919      0.00000
     66      58.5935      0.00000
     67      59.2027      0.00000
     68      59.9455      0.00000
     69      61.2453      0.00000
     70      61.4878      0.00000
     71      62.9148      0.00000
     72      63.0657      0.00000
     73      63.5673      0.00000
     74      64.7102      0.00000
     75      65.5257      0.00000
     76      65.7731      0.00000
     77      67.1713      0.00000
     78      68.8781      0.00000
     79      69.3750      0.00000
     80      70.4731      0.00000
     81      71.7929      0.00000
     82      72.0046      0.00000
     83      73.0371      0.00000
     84      74.1394      0.00000
     85      75.7458      0.00000
     86      75.7706      0.00000
     87      76.5089      0.00000
     88      77.3608      0.00000
     89      78.0379      0.00000
     90      80.5827      0.00000
     91      81.5586      0.00000
     92      82.1414      0.00000
     93      82.5947      0.00000
     94      84.3229      0.00000
     95      84.8959      0.00000
     96      85.7708      0.00000


--------------------------------------------------------------------------------------------------------


 soft charge-density along one line, spin component           1
         0         1         2         3         4         5         6         7         8         9
 total charge-density along one line

 soft charge-density along one line, spin component           2
         0         1         2         3         4         5         6         7         8         9
 total charge-density along one line

 pseudopotential strength for first ion, spin component:           1
-18.043   0.000  -0.000  -0.000  -0.000 -18.081   0.000  -0.000
  0.000 -18.046   0.000  -0.000   0.000   0.000 -18.083   0.000
 -0.000   0.000 -18.049   0.000   0.000  -0.000   0.000 -18.086
 -0.000  -0.000   0.000 -18.046  -0.000  -0.000  -0.000   0.000
 -0.000   0.000   0.000  -0.000 -18.043  -0.000   0.000   0.000
-18.081   0.000  -0.000  -0.000  -0.000 -18.098   0.000  -0.000
  0.000 -18.083   0.000  -0.000   0.000   0.000 -18.100   0.000
 -0.000   0.000 -18.086   0.000   0.000  -0.000   0.000 -18.104
 -0.000  -0.000   0.000 -18.083  -0.000  -0.000  -0.000   0.000
 -0.000   0.000   0.000  -0.000 -18.081  -0.000   0.000   0.000
 -0.000   0.000  -0.003   0.000   0.000  -0.000   0.000  -0.003
 -0.000   0.000  -0.005   0.000   0.000  -0.000   0.000  -0.005
 -0.000   0.000  -0.000  -0.000  -0.001  -0.000   0.000  -0.000
 -0.000  -0.000   0.000   0.000  -0.000  -0.000  -0.000   0.000
 -0.001  -0.000   0.000   0.000  -0.000  -0.000  -0.000   0.000
 -0.000   0.000  -0.000  -0.000  -0.000  -0.000   0.000  -0.000
 -0.000  -0.000   0.000   0.000  -0.000  -0.000  -0.000   0.000
 -0.000  -0.000   0.000   0.000  -0.000  -0.000  -0.000   0.000
 pseudopotential strength for first ion, spin component:           2
-18.043   0.000  -0.000  -0.000  -0.000 -18.081   0.000  -0.000
  0.000 -18.046   0.000  -0.000   0.000   0.000 -18.083   0.000
 -0.000   0.000 -18.049   0.000   0.000  -0.000   0.000 -18.086
 -0.000  -0.000   0.000 -18.046  -0.000  -0.000  -0.000   0.000
 -0.000   0.000   0.000  -0.000 -18.043  -0.000   0.000   0.000
-18.081   0.000  -0.000  -0.000  -0.000 -18.098   0.000  -0.000
  0.000 -18.083   0.000  -0.000   0.000   0.000 -18.100   0.000
 -0.000   0.000 -18.086   0.000   0.000  -0.000   0.000 -18.104
 -0.000  -0.000   0.000 -18.083  -0.000  -0.000  -0.000   0.000
 -0.000   0.000   0.000  -0.000 -18.081  -0.000   0.000   0.000
 -0.000   0.000  -0.003   0.000   0.000  -0.000   0.000  -0.003
 -0.000   0.000  -0.005   0.000   0.000  -0.000   0.000  -0.005
 -0.000   0.000  -0.000  -0.000  -0.001  -0.000   0.000  -0.000
 -0.000  -0.000   0.000   0.000  -0.000  -0.000  -0.000   0.000
 -0.001  -0.000   0.000   0.000  -0.000  -0.000  -0.000   0.000
 -0.000   0.000  -0.000  -0.000  -0.000  -0.000   0.000  -0.000
 -0.000  -0.000   0.000   0.000  -0.000  -0.000  -0.000   0.000
 -0.000  -0.000   0.000   0.000  -0.000  -0.000  -0.000   0.000
 total augmentation occupancy for first ion, spin component:           1
  3.365   0.000  -0.000   0.000   0.000  -1.302  -0.000   0.000  -0.000   0.000  -0.000   0.000   0.000  -0.000  -0.061  -0.000
  0.000   2.945   0.000   0.000  -0.000  -0.000  -0.812   0.000  -0.000   0.000  -0.000   0.000   0.000  -0.000  -0.000  -0.000
 -0.000   0.000   3.704   0.000   0.000   0.000  -0.000  -1.553   0.000  -0.000   0.503  -0.058  -0.000   0.000   0.000   0.000
  0.000   0.000   0.000   2.945   0.000  -0.000  -0.000  -0.000  -0.812  -0.000  -0.000   0.000  -0.000   0.000  -0.000   0.000
  0.000  -0.000   0.000   0.000   3.365   0.000   0.000  -0.000  -0.000  -1.302   0.000  -0.000  -0.061  -0.000  -0.000   0.004
 -1.302  -0.000   0.000  -0.000   0.000   1.214   0.000  -0.000   0.000  -0.000   0.000  -0.000  -0.000   0.000   0.057   0.000
 -0.000  -0.812  -0.000  -0.000   0.000   0.000   0.664   0.000   0.000  -0.000   0.000  -0.000  -0.000  -0.000   0.000   0.000
  0.000   0.000  -1.553   0.000  -0.000  -0.000  -0.000   1.387  -0.000   0.000  -0.515   0.089   0.000  -0.000  -0.000  -0.000
 -0.000  -0.000   0.000  -0.812  -0.000   0.000   0.000  -0.000   0.664   0.000   0.000  -0.000   0.000   0.000   0.000  -0.000
  0.000   0.000  -0.000  -0.000  -1.302   0.000  -0.000   0.000   0.000   1.214  -0.000   0.000   0.057   0.000   0.000  -0.006
 -0.000  -0.000   0.503  -0.000   0.000   0.000   0.000  -0.515   0.000  -0.000   2.838  -0.698   0.000   0.000  -0.000   0.000
  0.000   0.000  -0.058   0.000  -0.000  -0.000  -0.000   0.089  -0.000   0.000  -0.698   0.267   0.000  -0.000  -0.000   0.000
  0.000   0.000  -0.000  -0.000  -0.061  -0.000  -0.000   0.000   0.000   0.057   0.000   0.000   0.239   0.000   0.000  -0.040
 -0.000  -0.000   0.000  -0.000  -0.000   0.000   0.000  -0.000   0.000   0.000   0.000   0.000   0.000   0.153   0.000  -0.000
 -0.061  -0.000   0.000  -0.000  -0.000   0.057   0.000  -0.000   0.000   0.000  -0.000  -0.000   0.000   0.000   0.239  -0.000
 -0.000  -0.000   0.000   0.000   0.004   0.000   0.000  -0.000  -0.000  -0.006   0.000  -0.000  -0.040  -0.000  -0.000   0.009
  0.000  -0.000  -0.000  -0.000   0.000  -0.000  -0.000   0.000   0.000  -0.000  -0.000  -0.000  -0.000  -0.025  -0.000   0.000
  0.004   0.000  -0.000   0.000   0.000  -0.006  -0.000   0.000  -0.000  -0.000   0.000   0.000  -0.000  -0.000  -0.040   0.000
 total augmentation occupancy for first ion, spin component:           2
 -0.000   0.000  -0.000  -0.000   0.000   0.000   0.000  -0.000   0.000  -0.000   0.000  -0.000  -0.000   0.000   0.000   0.000
 -0.000   0.000   0.000   0.000   0.000   0.000  -0.000  -0.000  -0.000  -0.000   0.000  -0.000  -0.000   0.000   0.000   0.000
 -0.000   0.000   0.000   0.000   0.000  -0.000  -0.000  -0.000  -0.000  -0.000  -0.000   0.000   0.000  -0.000  -0.000   0.000
 -0.000   0.000   0.000   0.000  -0.000   0.000  -0.000  -0.000  -0.000   0.000   0.000  -0.000  -0.000   0.000   0.000  -0.000
  0.000   0.000   0.000   0.000  -0.000   0.000  -0.000   0.000   0.000   0.000  -0.000   0.000   0.000   0.000   0.000  -0.000
  0.000   0.000  -0.000   0.000  -0.000  -0.000  -0.000   0.000  -0.000   0.000  -0.000   0.000   0.000  -0.000  -0.000   0.000
  0.000  -0.000  -0.000  -0.000  -0.000  -0.000   0.000   0.000   0.000   0.000  -0.000   0.000   0.000  -0.000   0.000   0.000
 -0.000  -0.000  -0.000  -0.000  -0.000   0.000   0.000  -0.000   0.000  -0.000   0.000  -0.000  -0.000  -0.000   0.000  -0.000
  0.000  -0.000  -0.000  -0.000   0.000  -0.000   0.000   0.000   0.000  -0.000  -0.000   0.000   0.000  -0.000  -0.000  -0.000
  0.000  -0.000   0.000   0.000   0.000   0.000   0.000  -0.000  -0.000  -0.000   0.000  -0.000  -0.000  -0.000  -0.000  -0.000
  0.000   0.000  -0.000   0.000  -0.000  -0.000  -0.000   0.000  -0.000   0.000  -0.000   0.000   0.000  -0.000   0.000   0.000
 -0.000  -0.000   0.000  -0.000   0.000   0.000   0.000  -0.000   0.000  -0.000   0.000  -0.000   0.000  -0.000  -0.000   0.000
 -0.000  -0.000   0.000   0.000   0.000   0.000   0.000  -0.000  -0.000  -0.000  -0.000   0.000  -0.000  -0.000  -0.000   0.000
  0.000   0.000  -0.000   0.000   0.000  -0.000   0.000  -0.000   0.000  -0.000  -0.000  -0.000  -0.000  -0.000  -0.000   0.000
  0.000  -0.000  -0.000   0.000   0.000  -0.000  -0.000   0.000  -0.000  -0.000   0.000   0.000  -0.000  -0.000  -0.000   0.000
  0.000   0.000   0.000   0.000  -0.000   0.000   0.000  -0.000  -0.000  -0.000  -0.000  -0.000   0.000   0.000   0.000  -0.000
 -0.000  -0.000  -0.000  -0.000  -0.000  -0.000   0.000   0.000   0.000  -0.000   0.000   0.000   0.000   0.000   0.000  -0.000
 -0.000  -0.000   0.000  -0.000  -0.000  -0.000   0.000   0.000  -0.000  -0.000   0.000   0.000   0.000   0.000   0.000  -0.000


------------------------ aborting loop because EDIFF is reached ----------------------------------------





 total charge

# of ion       s       p       d       tot
------------------------------------------
    1        0.530   0.326   9.454  10.310
    2        0.530   0.326   9.454  10.310
--------------------------------------------------
tot          1.059   0.653  18.907  20.619



 magnetization (x)

# of ion       s       p       d       tot
------------------------------------------
    1       -0.000  -0.000   0.000  -0.000
    2       -0.000  -0.000   0.000  -0.000
--------------------------------------------------
tot         -0.000  -0.000   0.000  -0.000

    FORLOC:  cpu time      0.0000: real time      0.0000
    FORNL :  cpu time      0.0141: real time      0.0142
    STRESS:  cpu time      0.0394: real time      0.0397
    FORCOR:  cpu time      0.0364: real time      0.0365
    OFIELD:  cpu time      0.0000: real time      0.0000

  FORCE on cell =-STRESS in cart. coord.  units (eV):
  Direction    XX          YY          ZZ          XY          YZ          ZX
  --------------------------------------------------------------------------------------
  Alpha Z   211.42745   211.42745   211.42745
  Ewald    -658.54430  -658.54430  -842.76762    -0.00000     0.00000     0.00000
  Hartree   232.56493   232.56493   128.98767    -0.00000    -0.00000    -0.00000
  E(xc)    -125.49191  -125.49190  -125.59796     0.00001     0.00000     0.00000
  Local     141.82253   141.82238   427.37642    -0.00013     0.00000     0.00000
  n-local  -167.24643  -167.56130  -168.33978     2.53487    -0.16002    -0.38336
  augment    65.51481    65.51492    65.98416     0.00009     0.00000     0.00000
  Kinetic   301.46898   298.94440   302.98842    10.38664    -0.79143    -1.37976
  Fock        0.00000     0.00000     0.00000     0.00000     0.00000     0.00000
  -------------------------------------------------------------------------------------
  Total       0.09632     0.09632     0.05876     0.00000     0.00000     0.00000
  in kB       3.66394     3.66394     2.23512     0.00000     0.00000     0.00000
  external pressure =        3.19 kB  Pullay stress =        0.00 kB


 VOLUME and BASIS-vectors are now :
 -----------------------------------------------------------------------------
  energy-cutoff  :      300.00
  volume of cell :       42.12
      direct lattice vectors                 reciprocal lattice vectors
     2.941312077  0.000000000  0.000000000     0.339984325  0.196290041 -0.000000000
    -1.470656038  2.547250979  0.000000000    -0.000000000  0.392580083 -0.000000000
    -0.000000000  0.000000000  5.621450631    -0.000000000 -0.000000000  0.177890026

  length of vectors
     2.941312077  2.941312077  5.621450631     0.392580083  0.392580083  0.177890026


 FORCES acting on ions:
    Electron-Ion                     Ewald-Force                    Non-Local-Force
 -----------------------------------------------------------------------------------------------
   -.952E-06 0.549E-06 -.522E-11   0.258E-12 -.148E-12 0.353E-13   0.947E-17 -.397E-17 -.296E-19
   0.952E-06 -.549E-06 -.142E-11   -.259E-12 0.149E-12 -.353E-13   -.186E-16 0.945E-17 -.357E-19
 -----------------------------------------------------------------------------------------------
   0.275E-11 0.467E-11 -.693E-11   -.835E-15 0.117E-14 0.785E-17   -.910E-17 0.548E-17 -.653E-19


 POSITION                                       TOTAL-FORCE (eV/Angst)
 -----------------------------------------------------------------------------------
      1.47066      0.84908      4.21609         0.000000     -0.000000      0.000000
      0.00000      1.69817      1.40536        -0.000000      0.000000     -0.000000
 -----------------------------------------------------------------------------------
    total drift:                                0.000000      0.000000     -0.000000


--------------------------------------------------------------------------------------------------------



  FREE ENERGIE OF THE ION-ELECTRON SYSTEM (eV)
  ---------------------------------------------------
  free  energy   TOTEN  =        -2.46752862 eV

  energy  without entropy=       -2.45974885  energy(sigma->0) =       -2.46363873

 d Force = 0.0000000E+00[ 0.000E+00, 0.000E+00]  d Energy = 0.1946150E-02-0.195E-02
 d Force = 0.0000000E+00[ 0.000E+00, 0.000E+00]  d Ewald  = 0.1612551E+02-0.161E+02


--------------------------------------------------------------------------------------------------------


    POTLOK:  cpu time      0.6890: real time      0.6912


--------------------------------------------------------------------------------------------------------


 Conjugate gradient step on ions:
 trial-energy change:   -0.001946  1 .order   -0.001854   -0.005404    0.001695
  (g-gl).g = 0.500E-02      g.g   = 0.488E-02  gl.gl    = 0.299E-01
 g(Force)  = 0.288E-46   g(Stress)= 0.488E-02 ortho     =-0.124E-03
 gamma     =   0.16744
 trial     =   1.11236
 opt step  =   0.86178  (harmonic =   0.84673) maximal distance =0.00000000
 next E    =    -2.467719   (d E  =  -0.00214)


--------------------------------------------------------------------------------------------------------


  
 reached required accuracy - stopping structural energy minimisation
     LOOP+:  cpu time     24.2077: real time     24.4051
    4ORBIT:  cpu time      0.0000: real time      0.0000



 total charge

# of ion       s       p       d       tot
------------------------------------------
    1        0.530   0.326   9.454  10.310
    2        0.530   0.326   9.454  10.310
--------------------------------------------------
tot          1.059   0.653  18.907  20.619



 magnetization (x)

# of ion       s       p       d       tot
------------------------------------------
    1       -0.000  -0.000   0.000  -0.000
    2       -0.000  -0.000   0.000  -0.000
--------------------------------------------------
tot         -0.000  -0.000   0.000  -0.000


 total amount of memory used by VASP MPI-rank0    31449. kBytes
=======================================================================

   base      :      30000. kBytes
   nonlr-proj:        388. kBytes
   fftplans  :        234. kBytes
   grid      :        355. kBytes
   one-center:         31. kBytes
   wavefun   :        441. kBytes

  
  
 General timing and accounting informations for this job:
 ========================================================
  
                  Total CPU time used (sec):      161.445
                            User time (sec):      160.842
                          System time (sec):        0.604
                         Elapsed time (sec):      163.724
  
                   Maximum memory used (kb):      173152.
                   Average memory used (kb):          N/A
  
                          Minor page faults:        71196
                          Major page faults:          433
                 Voluntary context switches:         8224
