<?xml version="1.0" encoding="ISO-8859-1"?>
<modeling>
 <generator>
  <i name="program" type="string">vasp </i>
  <i name="version" type="string">6.4.1  </i>
  <i name="subversion" type="string">05Apr23 (build Apr 16 2023 17:31:45) complex                          parallel </i>
  <i name="platform" type="string">LinuxGNU </i>
  <i name="date" type="string">2024 07 05 </i>
  <i name="time" type="string">23:17:40 </i>
 </generator>
 <incar>
  <i type="string" name="PREC">Accurate</i>
  <i type="string" name="ALGO">All</i>
  <i type="int" name="ISPIN">     2</i>
  <i type="int" name="NELM">    40</i>
  <i type="int" name="IBRION">     2</i>
  <i name="EDIFF">      0.00000100</i>
  <i name="EDIFFG">     -0.05000000</i>
  <i type="int" name="NSW">   300</i>
  <i type="int" name="ISIF">     3</i>
  <i name="ENCUT">    300.00000000</i>
  <i type="int" name="NEDOS">  2000</i>
  <i type="string" name="LREAL">Auto</i>
  <i type="int" name="ISMEAR">     0</i>
  <i type="int" name="LMAXMIX">     4</i>
  <i type="logical" name="LWAVE"> F  </i>
  <i type="logical" name="LCHARG"> F  </i>
  <i type="logical" name="LVHAR"> T  </i>
  <i type="int" name="LORBIT">    11</i>
  <i type="logical" name="LASPH"> T  </i>
  <i type="logical" name="LHFCALC"> F  </i>
  <i type="string" name="GGA">PS</i>
 </incar>
 <primitive_cell>
  <structure name="primitive_cell" >
   <crystal>
    <varray name="basis" >
     <v>       2.91500196      -0.00000000       0.00000000 </v>
     <v>      -1.45750098       2.52446575       0.00000000 </v>
     <v>      -0.00000000      -0.00000000       5.89384309 </v>
    </varray>
    <i name="volume">     43.37174568 </i>
    <varray name="rec_basis" >
     <v>       0.34305294       0.19806171       0.00000000 </v>
     <v>       0.00000000       0.39612342       0.00000000 </v>
     <v>      -0.00000000      -0.00000000       0.16966858 </v>
    </varray>
   </crystal>
   <varray name="positions" >
    <v>       0.66666667       0.33333333       0.75000000 </v>
    <v>       0.33333333       0.66666667       0.25000000 </v>
   </varray>
  </structure>
  <varray name="primitive_index" >
   <v type="int" >        1 </v>
   <v type="int" >        2 </v>
  </varray>
 </primitive_cell>
 <kpoints>
  <generation param="Gamma">
   <v type="int" name="divisions">       7        7        3 </v>
   <v name="usershift">      0.00000000       0.00000000       0.00000000 </v>
   <v name="genvec1">      0.14285714       0.00000000       0.00000000 </v>
   <v name="genvec2">      0.00000000       0.14285714       0.00000000 </v>
   <v name="genvec3">      0.00000000      -0.00000000       0.33333333 </v>
   <v name="shift">      0.00000000       0.00000000       0.00000000 </v>
  </generation>
  <varray name="kpointlist" >
   <v>       0.00000000       0.00000000       0.00000000 </v>
   <v>       0.14285714       0.00000000       0.00000000 </v>
   <v>       0.28571429       0.00000000       0.00000000 </v>
   <v>       0.42857143       0.00000000       0.00000000 </v>
   <v>       0.14285714       0.14285714       0.00000000 </v>
   <v>       0.28571429       0.14285714       0.00000000 </v>
   <v>       0.42857143       0.14285714       0.00000000 </v>
   <v>       0.28571429       0.28571429       0.00000000 </v>
   <v>       0.00000000       0.00000000       0.33333333 </v>
   <v>       0.14285714       0.00000000       0.33333333 </v>
   <v>       0.28571429       0.00000000       0.33333333 </v>
   <v>       0.42857143       0.00000000       0.33333333 </v>
   <v>       0.14285714       0.14285714       0.33333333 </v>
   <v>       0.28571429       0.14285714       0.33333333 </v>
   <v>       0.42857143       0.14285714       0.33333333 </v>
   <v>       0.28571429       0.28571429       0.33333333 </v>
  </varray>
  <varray name="weights" >
   <v>       0.00680272 </v>
   <v>       0.04081633 </v>
   <v>       0.04081633 </v>
   <v>       0.04081633 </v>
   <v>       0.04081633 </v>
   <v>       0.08163265 </v>
   <v>       0.04081633 </v>
   <v>       0.04081633 </v>
   <v>       0.01360544 </v>
   <v>       0.08163265 </v>
   <v>       0.08163265 </v>
   <v>       0.08163265 </v>
   <v>       0.08163265 </v>
   <v>       0.16326531 </v>
   <v>       0.08163265 </v>
   <v>       0.08163265 </v>
  </varray>
 </kpoints>
 <parameters>
  <separator name="general" >
   <i type="string" name="SYSTEM">unknown system</i>
   <i type="logical" name="LCOMPAT"> F  </i>
  </separator>
  <separator name="electronic" >
   <i type="string" name="PREC">accura</i>
   <i name="ENMAX">    300.00000000</i>
   <i name="ENAUG">    456.10600000</i>
   <i name="EDIFF">      0.00000100</i>
   <i type="int" name="IALGO">    58</i>
   <i type="int" name="IWAVPR">    11</i>
   <i type="int" name="NBANDS">    96</i>
   <i type="int" name="NBANDSLOW">    -1</i>
   <i type="int" name="NBANDSHIGH">    -1</i>
   <i name="NELECT">     24.00000000</i>
   <i type="int" name="TURBO">     0</i>
   <i type="int" name="IRESTART">     0</i>
   <i type="int" name="NREBOOT">     0</i>
   <i type="int" name="NMIN">     0</i>
   <i name="EREF">      0.00000000</i>
   <separator name="electronic smearing" >
    <i type="int" name="ISMEAR">     0</i>
    <i name="SIGMA">      0.20000000</i>
    <i name="KSPACING">      0.50000000</i>
    <i type="logical" name="KGAMMA"> T  </i>
    <i type="logical" name="KBLOWUP"> T  </i>
   </separator>
   <separator name="electronic projectors" >
    <i type="logical" name="LREAL"> T  </i>
    <v name="ROPT">     -0.00025000</v>
    <i type="int" name="LMAXPAW">  -100</i>
    <i type="int" name="LMAXMIX">     4</i>
    <i type="logical" name="NLSPLINE"> F  </i>
   </separator>
   <separator name="electronic startup" >
    <i type="int" name="ISTART">     0</i>
    <i type="int" name="ICHARG">     2</i>
    <i type="int" name="INIWAV">     1</i>
   </separator>
   <separator name="electronic spin" >
    <i type="int" name="ISPIN">     2</i>
    <i type="logical" name="LNONCOLLINEAR"> F  </i>
    <v name="MAGMOM">      1.00000000      1.00000000</v>
    <i name="NUPDOWN">     -1.00000000</i>
    <i type="logical" name="LSORBIT"> F  </i>
    <v name="SAXIS">      0.00000000      0.00000000      1.00000000</v>
    <i type="logical" name="LSPIRAL"> F  </i>
    <v name="QSPIRAL">      0.00000000      0.00000000      0.00000000</v>
    <i type="logical" name="LZEROZ"> F  </i>
   </separator>
   <separator name="electronic exchange-correlation" >
    <i type="logical" name="LASPH"> T  </i>
    <i type="logical" name="LMETAGGA"> F  </i>
   </separator>
   <separator name="electronic convergence" >
    <i type="int" name="NELM">    40</i>
    <i type="int" name="NELMDL">     0</i>
    <i type="int" name="NELMIN">     2</i>
    <i name="ENINI">    300.00000000</i>
    <separator name="electronic convergence detail" >
     <i type="logical" name="LDIAG"> T  </i>
     <i type="logical" name="LSUBROT"> F  </i>
     <i name="WEIMIN">      0.00100000</i>
     <i name="EBREAK">      0.00000000</i>
     <i name="DEPER">      0.30000000</i>
     <i type="int" name="NRMM">     4</i>
     <i name="TIME">      0.40000000</i>
    </separator>
   </separator>
   <separator name="electronic mixer" >
    <i name="AMIX">      0.40000000</i>
    <i name="BMIX">      1.00000000</i>
    <i name="AMIN">      0.10000000</i>
    <i name="AMIX_MAG">      1.60000000</i>
    <i name="BMIX_MAG">      1.00000000</i>
    <separator name="electronic mixer details" >
     <i type="int" name="IMIX">     4</i>
     <i type="logical" name="MIXFIRST"> F  </i>
     <i type="int" name="MAXMIX">   -45</i>
     <i name="WC">    100.00000000</i>
     <i type="int" name="INIMIX">     1</i>
     <i type="int" name="MIXPRE">     1</i>
     <i type="int" name="MREMOVE">     5</i>
    </separator>
   </separator>
   <separator name="electronic dipolcorrection" >
    <i type="logical" name="LDIPOL"> F  </i>
    <i type="logical" name="LMONO"> F  </i>
    <i type="int" name="IDIPOL">     0</i>
    <i name="EPSILON">      1.00000000</i>
    <v name="DIPOL">   -100.00000000   -100.00000000   -100.00000000</v>
    <i name="EFIELD">      0.00000000</i>
   </separator>
  </separator>
  <separator name="grids" >
   <i type="int" name="NGX">    16</i>
   <i type="int" name="NGY">    16</i>
   <i type="int" name="NGZ">    36</i>
   <i type="int" name="NGXF">    32</i>
   <i type="int" name="NGYF">    32</i>
   <i type="int" name="NGZF">    72</i>
   <i type="logical" name="ADDGRID"> F  </i>
  </separator>
  <separator name="ionic" >
   <i type="int" name="NSW">   300</i>
   <i type="int" name="IBRION">     2</i>
   <i type="int" name="MDALGO">     0</i>
   <i type="int" name="ISIF">     3</i>
   <i name="PSTRESS">      0.00000000</i>
   <i name="EDIFFG">     -0.05000000</i>
   <i type="int" name="NFREE">     1</i>
   <i name="POTIM">      0.50000000</i>
   <i name="SMASS">     -3.00000000</i>
   <i name="SCALEE">      1.00000000</i>
  </separator>
  <separator name="ionic md" >
   <i name="TEBEG">      0.00010000</i>
   <i name="TEEND">      0.00010000</i>
   <i type="int" name="NBLOCK">     1</i>
   <i type="int" name="KBLOCK">   300</i>
   <i type="int" name="NPACO">   256</i>
   <i name="APACO">     10.00000000</i>
  </separator>
  <separator name="symmetry" >
   <i type="int" name="ISYM">     2</i>
   <i name="SYMPREC">      0.00001000</i>
  </separator>
  <separator name="dos" >
   <i type="int" name="LORBIT">    11</i>
   <v name="RWIGS">     -1.00000000</v>
   <i type="int" name="NEDOS">  2000</i>
   <i name="EMIN">     10.00000000</i>
   <i name="EMAX">    -10.00000000</i>
   <i name="EFERMI">      0.00000000</i>
  </separator>
  <separator name="writing" >
   <i type="int" name="NWRITE">     2</i>
   <i type="logical" name="LWAVE"> F  </i>
   <i type="logical" name="LDOWNSAMPLE"> F  </i>
   <i type="logical" name="LCHARG"> F  </i>
   <i type="logical" name="LPARD"> F  </i>
   <i type="logical" name="LVTOT"> F  </i>
   <i type="logical" name="LVHAR"> T  </i>
   <i type="logical" name="LELF"> F  </i>
   <i type="logical" name="LOPTICS"> F  </i>
   <v name="STM">      0.00000000      0.00000000      0.00000000      0.00000000      0.00000000      0.00000000      0.00000000</v>
  </separator>
  <separator name="performance" >
   <i type="int" name="NPAR">    96</i>
   <i type="int" name="NSIM">     4</i>
   <i type="int" name="NBLK">    -1</i>
   <i type="logical" name="LPLANE"> T  </i>
   <i type="logical" name="LSCALAPACK"> T  </i>
   <i type="logical" name="LSCAAWARE"> T  </i>
   <i type="logical" name="LSCALU"> F  </i>
   <i type="logical" name="LASYNC"> F  </i>
   <i type="logical" name="LORBITALREAL"> F  </i>
  </separator>
  <separator name="miscellaneous" >
   <i type="int" name="IDIOT">     3</i>
   <i type="int" name="PHON_NSTRUCT">    -1</i>
   <i type="logical" name="LMUSIC"> F  </i>
   <v name="POMASS">    112.41100000</v>
   <v name="DARWINR">      0.00000000</v>
   <v name="DARWINV">      1.00000000</v>
   <i type="logical" name="LCORR"> T  </i>
  </separator>
  <i type="logical" name="GGA_COMPAT"> T  </i>
  <i type="logical" name="LBERRY"> F  </i>
  <i type="int" name="ICORELEVEL">     0</i>
  <i type="logical" name="LDAU"> F  </i>
  <i type="int" name="I_CONSTRAINED_M">     0</i>
  <separator name="electronic exchange-correlation" >
   <i type="string" name="GGA">PS</i>
   <i type="int" name="VOSKOWN">     0</i>
   <i type="logical" name="LHFCALC"> F  </i>
   <i type="string" name="PRECFOCK"></i>
   <i type="logical" name="LSYMGRAD"> F  </i>
   <i type="logical" name="LHFONE"> F  </i>
   <i type="logical" name="LRHFCALC"> F  </i>
   <i type="logical" name="LTHOMAS"> F  </i>
   <i type="logical" name="LMODELHF"> F  </i>
   <i type="logical" name="LFOCKACE"> F  </i>
   <i name="ENCUT4O">     -1.00000000</i>
   <i type="int" name="EXXOEP">     0</i>
   <i type="int" name="FOURORBIT">     0</i>
   <i name="AEXX">      0.00000000</i>
   <i name="HFALPHA">      0.00000000</i>
   <i name="MCALPHA">      0.00000000</i>
   <i name="ALDAX">      1.00000000</i>
   <i name="AGGAX">      1.00000000</i>
   <i name="ALDAC">      1.00000000</i>
   <i name="AGGAC">      1.00000000</i>
   <i type="int" name="NKREDX">     1</i>
   <i type="int" name="NKREDY">     1</i>
   <i type="int" name="NKREDZ">     1</i>
   <i type="logical" name="SHIFTRED"> F  </i>
   <i type="logical" name="ODDONLY"> F  </i>
   <i type="logical" name="EVENONLY"> F  </i>
   <i type="int" name="LMAXFOCK">     0</i>
   <i type="int" name="NMAXFOCKAE">     0</i>
   <i type="logical" name="LFOCKAEDFT"> F  </i>
   <i name="HFSCREEN">      0.00000000</i>
   <i name="HFSCREENC">      0.00000000</i>
   <i type="int" name="NBANDSGWLOW">     0</i>
  </separator>
  <separator name="vdW DFT" >
   <i type="logical" name="LUSE_VDW"> F  </i>
   <i type="int" name="IVDW_NL">     1</i>
   <i type="logical" name="LSPIN_VDW"> F  </i>
   <i name="Zab_VDW">     -0.84910000</i>
   <i name="PARAM1">      0.12340000</i>
   <i name="PARAM2">      1.00000000</i>
   <i name="PARAM3">      0.00000000</i>
  </separator>
  <separator name="model GW" >
   <i type="int" name="MODEL_GW">     0</i>
   <i name="MODEL_EPS0">     13.01152370</i>
   <i name="MODEL_ALPHA">      1.00000000</i>
  </separator>
  <separator name="linear response parameters" >
   <i type="logical" name="LEPSILON"> F  </i>
   <i type="logical" name="LRPA"> F  </i>
   <i type="logical" name="LNABLA"> F  </i>
   <i type="logical" name="LVEL"> F  </i>
   <i name="CSHIFT">      0.10000000</i>
   <i name="OMEGAMAX">     -1.00000000</i>
   <i name="DEG_THRESHOLD">      0.00200000</i>
   <i name="RTIME">     -0.10000000</i>
   <i name="WPLASMAI">      0.00000000</i>
   <v name="DFIELD">      0.00000000      0.00000000      0.00000000</v>
   <v name="WPLASMA">      0.00000000      0.00000000      0.00000000      0.00000000      0.00000000      0.00000000      0.00000000      0.00000000      0.00000000</v>
  </separator>
  <separator name="orbital magnetization" >
   <i type="logical" name="NUCIND"> F  </i>
   <v name="MAGPOS">      0.00000000      0.00000000      0.00000000</v>
   <i type="logical" name="LNICSALL"> T  </i>
   <i type="logical" name="ORBITALMAG"> F  </i>
   <i type="logical" name="LMAGBLOCH"> F  </i>
   <i type="logical" name="LCHIMAG"> F  </i>
   <i type="logical" name="LGAUGE"> T  </i>
   <i type="int" name="MAGATOM">     0</i>
   <v name="MAGDIPOL">      0.00000000      0.00000000      0.00000000</v>
   <v name="AVECCONST">      0.00000000      0.00000000      0.00000000</v>
  </separator>
  <separator name="response functions" >
   <i type="logical" name="LALL_IN_ONE"> F  </i>
   <i type="int" name="IALL_IN_ONE">    -1</i>
   <i type="int" name="NBANDS_WAVE">    -1</i>
   <i type="logical" name="LFINITE_TEMPERATURE"> F  </i>
   <i type="logical" name="LADDER"> F  </i>
   <i type="logical" name="LRPAFORCE"> F  </i>
   <i type="logical" name="LFXC"> F  </i>
   <i type="logical" name="LHARTREE"> T  </i>
   <i type="int" name="IBSE">     0</i>
   <v type="int" name="KPOINT">    -1     0     0     0</v>
   <i type="logical" name="LTCTC"> F  </i>
   <i type="logical" name="LTCTE"> F  </i>
   <i type="logical" name="LTETE"> F  </i>
   <i type="logical" name="LTRIPLET"> F  </i>
   <i type="logical" name="LFXCEPS"> F  </i>
   <i type="logical" name="LFXHEG"> F  </i>
   <i type="int" name="NATURALO">     2</i>
   <i type="logical" name="LHOLEGF"> F  </i>
   <i type="logical" name="L2ORDER"> F  </i>
   <i type="logical" name="LDMP1"> F  </i>
   <i type="logical" name="LMP2LT"> F  </i>
   <i type="logical" name="LSMP2LT"> F  </i>
   <i type="logical" name="LGWLF"> F  </i>
   <i name="ENCUTGW">     -1.60000002</i>
   <i name="ENCUTGWSOFT">     -1.60000002</i>
   <i name="ENCUTLF">     -1.00000000</i>
   <i type="logical" name="LESF_SPLINES"> F  </i>
   <i type="int" name="LMAXMP2">    -1</i>
   <i name="SCISSOR">      0.00000000</i>
   <i type="int" name="NOMEGA">     0</i>
   <i type="int" name="NOMEGAR">     0</i>
   <i type="int" name="NBANDSGW">    -1</i>
   <i type="int" name="NBANDSO">    -1</i>
   <i type="int" name="NBANDSV">    -1</i>
   <i type="int" name="NELMGW">     1</i>
   <i type="int" name="NELMHF">     1</i>
   <i type="int" name="DIM">     3</i>
   <i type="int" name="IESPILON">     4</i>
   <i type="int" name="ANTIRES">     0</i>
   <i name="OMEGAMAX">    -30.00000000</i>
   <i name="OMEGAMIN">    -30.00000000</i>
   <i name="OMEGATL">   -200.00000000</i>
   <i type="int" name="OMEGAGRID">     0</i>
   <i name="CSHIFT">     -0.10000000</i>
   <i type="logical" name="LSELFENERGY"> F  </i>
   <i type="logical" name="LSPECTRAL"> F  </i>
   <i type="logical" name="LSPECTRALGW"> F  </i>
   <i type="logical" name="LSINGLES"> F  </i>
   <i type="logical" name="LFERMIGW"> F  </i>
   <i type="logical" name="ODDONLYGW"> F  </i>
   <i type="logical" name="EVENONLYGW"> F  </i>
   <i type="int" name="NKREDLFX">     1</i>
   <i type="int" name="NKREDLFY">     1</i>
   <i type="int" name="NKREDLFZ">     1</i>
   <i type="int" name="MAXMEM">  2800</i>
   <i type="int" name="TELESCOPE">     0</i>
   <i type="int" name="NTAUPAR">    -1</i>
   <i type="int" name="NOMEGAPAR">    -1</i>
   <i name="DAMP_NEWTON">      0.80000001</i>
   <i name="LAMBDA">      1.00000000</i>
  </separator>
  <separator name="External order field" >
   <i name="OFIELD_KAPPA">      0.00000000</i>
   <v name="OFIELD_K">      0.00000000      0.00000000      0.00000000</v>
   <i name="OFIELD_Q6_NEAR">      0.00000000</i>
   <i name="OFIELD_Q6_FAR">      0.00000000</i>
   <i name="OFIELD_A">      0.00000000</i>
  </separator>
  <separator name="optional k-points parameters" >
   <i type="int" name="KPOINTS_OPT_MODE">     1</i>
   <i type="logical" name="LKPOINTS_OPT"> F  </i>
  </separator>
 </parameters>
 <atominfo>
  <atoms>       2 </atoms>
  <types>       1 </types>
  <array name="atoms" >
   <dimension dim="1">ion</dimension>
   <field type="string">element</field>
   <field type="int">atomtype</field>
   <set>
    <rc><c>Cd</c><c>   1</c></rc>
    <rc><c>Cd</c><c>   1</c></rc>
   </set>
  </array>
  <array name="atomtypes" >
   <dimension dim="1">type</dimension>
   <field type="int">atomspertype</field>
   <field type="string">element</field>
   <field>mass</field>
   <field>valence</field>
   <field type="string">pseudopotential</field>
   <set>
    <rc><c>   2</c><c>Cd</c><c>    112.41100000</c><c>     12.00000000</c><c>  PAW_PBE Cd 06Sep2000                  </c></rc>
   </set>
  </array>
 </atominfo>
 <structure name="initialpos" >
  <crystal>
   <varray name="basis" >
    <v>       2.91500196      -0.00000000       0.00000000 </v>
    <v>      -1.45750098       2.52446575       0.00000000 </v>
    <v>      -0.00000000      -0.00000000       5.89384309 </v>
   </varray>
   <i name="volume">     43.37174568 </i>
   <varray name="rec_basis" >
    <v>       0.34305294       0.19806171       0.00000000 </v>
    <v>       0.00000000       0.39612342       0.00000000 </v>
    <v>      -0.00000000      -0.00000000       0.16966858 </v>
   </varray>
  </crystal>
  <varray name="positions" >
   <v>       0.66666667       0.33333333       0.75000000 </v>
   <v>       0.33333333       0.66666667       0.25000000 </v>
  </varray>
 </structure>
 <calculation>
  <scstep>
   <time name="total">    7.54    7.59</time>
   <energy>
    <i name="alphaZ">    205.31264906 </i>
    <i name="ewald">  -2130.38490151 </i>
    <i name="hartreedc">   -630.01953068 </i>
    <i name="XCdc">     13.91988599 </i>
    <i name="pawpsdc">   2390.75912055 </i>
    <i name="pawaedc">  -2325.17731888 </i>
    <i name="eentropy">     -0.00617983 </i>
    <i name="bandstr">   -111.39883442 </i>
    <i name="atom">   2585.62705738 </i>
    <i name="e_fr_energy">     -1.36805234 </i>
    <i name="e_wo_entrp">     -1.36187250 </i>
    <i name="e_0_energy">     -1.36496242 </i>
   </energy>
  </scstep>
  <scstep>
   <time name="total">    4.28    4.32</time>
   <energy>
    <i name="e_fr_energy">     -2.34583037 </i>
    <i name="e_wo_entrp">     -2.33961255 </i>
    <i name="e_0_energy">     -2.34272146 </i>
   </energy>
  </scstep>
  <scstep>
   <time name="total">   13.96   14.05</time>
   <energy>
    <i name="e_fr_energy">     -2.34591403 </i>
    <i name="e_wo_entrp">     -2.33969621 </i>
    <i name="e_0_energy">     -2.34280512 </i>
   </energy>
  </scstep>
  <scstep>
   <time name="total">    6.32    6.36</time>
   <energy>
    <i name="e_fr_energy">     -2.34591403 </i>
    <i name="e_wo_entrp">     -2.33969621 </i>
    <i name="e_0_energy">     -2.34280512 </i>
   </energy>
  </scstep>
  <scstep>
   <time name="total">   11.24   11.30</time>
   <energy>
    <i name="e_fr_energy">     -2.34591403 </i>
    <i name="e_wo_entrp">     -2.33969621 </i>
    <i name="e_0_energy">     -2.34280512 </i>
   </energy>
  </scstep>
  <scstep>
   <time name="total">    3.09    3.12</time>
   <energy>
    <i name="e_fr_energy">     -2.23756933 </i>
    <i name="e_wo_entrp">     -2.23272300 </i>
    <i name="e_0_energy">     -2.23514617 </i>
   </energy>
  </scstep>
  <scstep>
   <time name="total">    3.23    3.25</time>
   <energy>
    <i name="e_fr_energy">     -2.42685551 </i>
    <i name="e_wo_entrp">     -2.42282086 </i>
    <i name="e_0_energy">     -2.42483819 </i>
   </energy>
  </scstep>
  <scstep>
   <time name="total">    3.04    3.07</time>
   <energy>
    <i name="e_fr_energy">     -2.44166147 </i>
    <i name="e_wo_entrp">     -2.43791954 </i>
    <i name="e_0_energy">     -2.43979050 </i>
   </energy>
  </scstep>
  <scstep>
   <time name="total">    3.01    3.04</time>
   <energy>
    <i name="e_fr_energy">     -2.44242600 </i>
    <i name="e_wo_entrp">     -2.43868763 </i>
    <i name="e_0_energy">     -2.44055681 </i>
   </energy>
  </scstep>
  <scstep>
   <time name="total">    3.01    3.04</time>
   <energy>
    <i name="e_fr_energy">     -2.44247058 </i>
    <i name="e_wo_entrp">     -2.43873167 </i>
    <i name="e_0_energy">     -2.44060112 </i>
   </energy>
  </scstep>
  <scstep>
   <time name="total">    3.01    3.04</time>
   <energy>
    <i name="e_fr_energy">     -2.44247299 </i>
    <i name="e_wo_entrp">     -2.43873347 </i>
    <i name="e_0_energy">     -2.44060323 </i>
   </energy>
  </scstep>
  <scstep>
   <time name="total">    3.55    3.58</time>
   <energy>
    <i name="alphaZ">    205.31264906 </i>
    <i name="ewald">  -2130.38490151 </i>
    <i name="hartreedc">   -613.06985680 </i>
    <i name="XCdc">     13.06926980 </i>
    <i name="pawpsdc">   2526.43723695 </i>
    <i name="pawaedc">  -2461.44284763 </i>
    <i name="eentropy">     -0.00373946 </i>
    <i name="bandstr">   -127.98734125 </i>
    <i name="atom">   2585.62705738 </i>
    <i name="e_fr_energy">     -2.44247352 </i>
    <i name="e_wo_entrp">     -2.43873406 </i>
    <i name="e_0_energy">     -2.44060379 </i>
   </energy>
  </scstep>
  <structure>
   <crystal>
    <varray name="basis" >
     <v>       2.91500196      -0.00000000       0.00000000 </v>
     <v>      -1.45750098       2.52446575       0.00000000 </v>
     <v>      -0.00000000      -0.00000000       5.89384309 </v>
    </varray>
    <i name="volume">     43.37174568 </i>
    <varray name="rec_basis" >
     <v>       0.34305294       0.19806171       0.00000000 </v>
     <v>       0.00000000       0.39612342       0.00000000 </v>
     <v>      -0.00000000      -0.00000000       0.16966858 </v>
    </varray>
   </crystal>
   <varray name="positions" >
    <v>       0.66666667       0.33333333       0.75000000 </v>
    <v>       0.33333333       0.66666667       0.25000000 </v>
   </varray>
  </structure>
  <varray name="forces" >
   <v>       0.00000000      -0.00000000       0.00000000 </v>
   <v>      -0.00000000       0.00000000      -0.00000000 </v>
  </varray>
  <varray name="stress" >
   <v>      14.49861517       0.00000000       0.00000000 </v>
   <v>       0.00000000      14.49861517       0.00000000 </v>
   <v>       0.00000000       0.00000000     -35.63805043 </v>
  </varray>
  <energy>
   <i name="e_fr_energy">     -2.44247352 </i>
   <i name="e_wo_entrp">     -2.43873406 </i>
   <i name="e_0_energy">     -2.44060379 </i>
  </energy>
  <time name="totalsc">   67.97   68.46</time>
 </calculation>
 <calculation>
  <scstep>
   <time name="total">    3.01    3.02</time>
   <energy>
    <i name="alphaZ">    206.27997368 </i>
    <i name="ewald">  -2139.07364159 </i>
    <i name="hartreedc">   -602.04989270 </i>
    <i name="XCdc">     12.89007024 </i>
    <i name="pawpsdc">   2527.72587312 </i>
    <i name="pawaedc">  -2462.53014434 </i>
    <i name="eentropy">     -0.00605217 </i>
    <i name="bandstr">   -131.03362678 </i>
    <i name="atom">   2585.62705738 </i>
    <i name="e_fr_energy">     -2.17119977 </i>
    <i name="e_wo_entrp">     -2.16514761 </i>
    <i name="e_0_energy">     -2.16817369 </i>
   </energy>
  </scstep>
  <scstep>
   <time name="total">    3.20    3.23</time>
   <energy>
    <i name="e_fr_energy">     -2.45005837 </i>
    <i name="e_wo_entrp">     -2.44465468 </i>
    <i name="e_0_energy">     -2.44735653 </i>
   </energy>
  </scstep>
  <scstep>
   <time name="total">    3.04    3.07</time>
   <energy>
    <i name="e_fr_energy">     -2.46148953 </i>
    <i name="e_wo_entrp">     -2.45614166 </i>
    <i name="e_0_energy">     -2.45881559 </i>
   </energy>
  </scstep>
  <scstep>
   <time name="total">    4.10    4.14</time>
   <energy>
    <i name="e_fr_energy">     -2.46260212 </i>
    <i name="e_wo_entrp">     -2.45726188 </i>
    <i name="e_0_energy">     -2.45993200 </i>
   </energy>
  </scstep>
  <scstep>
   <time name="total">    4.47    4.50</time>
   <energy>
    <i name="e_fr_energy">     -2.46264531 </i>
    <i name="e_wo_entrp">     -2.45730509 </i>
    <i name="e_0_energy">     -2.45997520 </i>
   </energy>
  </scstep>
  <scstep>
   <time name="total">    3.78    3.81</time>
   <energy>
    <i name="e_fr_energy">     -2.46264894 </i>
    <i name="e_wo_entrp">     -2.45730709 </i>
    <i name="e_0_energy">     -2.45997801 </i>
   </energy>
  </scstep>
  <scstep>
   <time name="total">    3.91    3.94</time>
   <energy>
    <i name="alphaZ">    206.27997368 </i>
    <i name="ewald">  -2139.07364159 </i>
    <i name="hartreedc">   -606.54176820 </i>
    <i name="XCdc">     13.05647164 </i>
    <i name="pawpsdc">   2520.34509011 </i>
    <i name="pawaedc">  -2455.24544264 </i>
    <i name="eentropy">     -0.00534185 </i>
    <i name="bandstr">   -126.90504817 </i>
    <i name="atom">   2585.62705738 </i>
    <i name="e_fr_energy">     -2.46264963 </i>
    <i name="e_wo_entrp">     -2.45730778 </i>
    <i name="e_0_energy">     -2.45997870 </i>
   </energy>
  </scstep>
  <structure>
   <crystal>
    <varray name="basis" >
     <v>       2.94259902       0.00000000       0.00000000 </v>
     <v>      -1.47129951       2.54836551       0.00000000 </v>
     <v>       0.00000000       0.00000000       5.75668860 </v>
    </varray>
    <i name="volume">     43.16835920 </i>
    <varray name="rec_basis" >
     <v>       0.33983563       0.19620419      -0.00000000 </v>
     <v>      -0.00000000       0.39240839      -0.00000000 </v>
     <v>      -0.00000000      -0.00000000       0.17371098 </v>
    </varray>
   </crystal>
   <varray name="positions" >
    <v>       0.66666667       0.33333333       0.75000000 </v>
    <v>       0.33333333       0.66666667       0.25000000 </v>
   </varray>
  </structure>
  <varray name="forces" >
   <v>      -0.00000000       0.00000000       0.00000000 </v>
   <v>       0.00000000      -0.00000000      -0.00000000 </v>
  </varray>
  <varray name="stress" >
   <v>      -1.96325278      -0.00000000       0.00000000 </v>
   <v>      -0.00000000      -1.96325278       0.00000000 </v>
   <v>      -0.00000000       0.00000000     -17.84179364 </v>
  </varray>
  <energy>
   <i name="e_fr_energy">     -2.46264963 </i>
   <i name="e_wo_entrp">     -2.45730778 </i>
   <i name="e_0_energy">     -2.45997870 </i>
  </energy>
  <time name="totalsc">   28.15   28.38</time>
 </calculation>
 <calculation>
  <scstep>
   <time name="total">    3.12    3.14</time>
   <energy>
    <i name="alphaZ">    206.80668164 </i>
    <i name="ewald">  -2143.10894992 </i>
    <i name="hartreedc">   -601.43039384 </i>
    <i name="XCdc">     12.97227672 </i>
    <i name="pawpsdc">   2519.00358402 </i>
    <i name="pawaedc">  -2453.81573862 </i>
    <i name="eentropy">     -0.00713958 </i>
    <i name="bandstr">   -128.44216722 </i>
    <i name="atom">   2585.62705738 </i>
    <i name="e_fr_energy">     -2.39524016 </i>
    <i name="e_wo_entrp">     -2.38810057 </i>
    <i name="e_0_energy">     -2.39167036 </i>
   </energy>
  </scstep>
  <scstep>
   <time name="total">    3.03    3.05</time>
   <energy>
    <i name="e_fr_energy">     -2.46253791 </i>
    <i name="e_wo_entrp">     -2.45570861 </i>
    <i name="e_0_energy">     -2.45912326 </i>
   </energy>
  </scstep>
  <scstep>
   <time name="total">    3.06    3.09</time>
   <energy>
    <i name="e_fr_energy">     -2.46525048 </i>
    <i name="e_wo_entrp">     -2.45845426 </i>
    <i name="e_0_energy">     -2.46185237 </i>
   </energy>
  </scstep>
  <scstep>
   <time name="total">    3.02    3.04</time>
   <energy>
    <i name="e_fr_energy">     -2.46550631 </i>
    <i name="e_wo_entrp">     -2.45870924 </i>
    <i name="e_0_energy">     -2.46210778 </i>
   </energy>
  </scstep>
  <scstep>
   <time name="total">    3.01    3.04</time>
   <energy>
    <i name="e_fr_energy">     -2.46551447 </i>
    <i name="e_wo_entrp">     -2.45871454 </i>
    <i name="e_0_energy">     -2.46211450 </i>
   </energy>
  </scstep>
  <scstep>
   <time name="total">    3.55    3.58</time>
   <energy>
    <i name="alphaZ">    206.80668164 </i>
    <i name="ewald">  -2143.10894992 </i>
    <i name="hartreedc">   -603.60299782 </i>
    <i name="XCdc">     13.05335088 </i>
    <i name="pawpsdc">   2518.02682650 </i>
    <i name="pawaedc">  -2452.88372414 </i>
    <i name="eentropy">     -0.00680425 </i>
    <i name="bandstr">   -126.37695979 </i>
    <i name="atom">   2585.62705738 </i>
    <i name="e_fr_energy">     -2.46551520 </i>
    <i name="e_wo_entrp">     -2.45871095 </i>
    <i name="e_0_energy">     -2.46211307 </i>
   </energy>
  </scstep>
  <structure>
   <crystal>
    <varray name="basis" >
     <v>       2.95600429       0.00000000       0.00000000 </v>
     <v>      -1.47800215       2.55997481       0.00000000 </v>
     <v>       0.00000000       0.00000000       5.69006583 </v>
    </varray>
    <i name="volume">     43.05841537 </i>
    <varray name="rec_basis" >
     <v>       0.33829450       0.19531442      -0.00000000 </v>
     <v>      -0.00000000       0.39062884      -0.00000000 </v>
     <v>      -0.00000000      -0.00000000       0.17574489 </v>
    </varray>
   </crystal>
   <varray name="positions" >
    <v>       0.66666667       0.33333333       0.75000000 </v>
    <v>       0.33333333       0.66666667       0.25000000 </v>
   </varray>
  </structure>
  <varray name="forces" >
   <v>       0.00000000      -0.00000000      -0.00000000 </v>
   <v>      -0.00000000       0.00000000       0.00000000 </v>
  </varray>
  <varray name="stress" >
   <v>      -9.08294668      -0.00000000      -0.00000000 </v>
   <v>      -0.00000000      -9.08294668       0.00000000 </v>
   <v>      -0.00000000       0.00000000      -9.59515622 </v>
  </varray>
  <energy>
   <i name="e_fr_energy">     -2.46551520 </i>
   <i name="e_wo_entrp">     -2.45871095 </i>
   <i name="e_0_energy">     -2.46211307 </i>
  </energy>
  <time name="totalsc">   21.58   21.76</time>
 </calculation>
 <calculation>
  <scstep>
   <time name="total">    3.01    3.03</time>
   <energy>
    <i name="alphaZ">    206.89259574 </i>
    <i name="ewald">  -2143.73050079 </i>
    <i name="hartreedc">   -602.82333070 </i>
    <i name="XCdc">     13.04057961 </i>
    <i name="pawpsdc">   2517.57917240 </i>
    <i name="pawaedc">  -2452.42208189 </i>
    <i name="eentropy">     -0.00720154 </i>
    <i name="bandstr">   -126.62009220 </i>
    <i name="atom">   2585.62705738 </i>
    <i name="e_fr_energy">     -2.46383444 </i>
    <i name="e_wo_entrp">     -2.45663290 </i>
    <i name="e_0_energy">     -2.46023367 </i>
   </energy>
  </scstep>
  <scstep>
   <time name="total">    3.01    3.03</time>
   <energy>
    <i name="e_fr_energy">     -2.46550862 </i>
    <i name="e_wo_entrp">     -2.45833959 </i>
    <i name="e_0_energy">     -2.46192410 </i>
   </energy>
  </scstep>
  <scstep>
   <time name="total">    3.01    3.04</time>
   <energy>
    <i name="e_fr_energy">     -2.46557627 </i>
    <i name="e_wo_entrp">     -2.45841238 </i>
    <i name="e_0_energy">     -2.46199433 </i>
   </energy>
  </scstep>
  <scstep>
   <time name="total">    3.00    3.03</time>
   <energy>
    <i name="e_fr_energy">     -2.46558239 </i>
    <i name="e_wo_entrp">     -2.45841822 </i>
    <i name="e_0_energy">     -2.46200031 </i>
   </energy>
  </scstep>
  <scstep>
   <time name="total">    3.42    3.45</time>
   <energy>
    <i name="alphaZ">    206.89259574 </i>
    <i name="ewald">  -2143.73050079 </i>
    <i name="hartreedc">   -603.16406540 </i>
    <i name="XCdc">     13.05334161 </i>
    <i name="pawpsdc">   2517.76563286 </i>
    <i name="pawaedc">  -2452.61571817 </i>
    <i name="eentropy">     -0.00716441 </i>
    <i name="bandstr">   -126.28676154 </i>
    <i name="atom">   2585.62705738 </i>
    <i name="e_fr_energy">     -2.46558247 </i>
    <i name="e_wo_entrp">     -2.45841806 </i>
    <i name="e_0_energy">     -2.46200026 </i>
   </energy>
  </scstep>
  <structure>
   <crystal>
    <varray name="basis" >
     <v>       2.95810320       0.00000000       0.00000000 </v>
     <v>      -1.47905160       2.56179252       0.00000000 </v>
     <v>       0.00000000       0.00000000       5.67963446 </v>
    </varray>
    <i name="volume">     43.04053496 </i>
    <varray name="rec_basis" >
     <v>       0.33805447       0.19517584      -0.00000000 </v>
     <v>      -0.00000000       0.39035167      -0.00000000 </v>
     <v>      -0.00000000      -0.00000000       0.17606767 </v>
    </varray>
   </crystal>
   <varray name="positions" >
    <v>       0.66666667       0.33333333       0.75000000 </v>
    <v>       0.33333333       0.66666667       0.25000000 </v>
   </varray>
  </structure>
  <varray name="forces" >
   <v>       0.00000000      -0.00000000       0.00000000 </v>
   <v>      -0.00000000       0.00000000      -0.00000000 </v>
  </varray>
  <varray name="stress" >
   <v>     -10.32143226       0.00000000       0.00000000 </v>
   <v>       0.00000000     -10.32143226       0.00000000 </v>
   <v>      -0.00000000      -0.00000000      -8.19909043 </v>
  </varray>
  <energy>
   <i name="e_fr_energy">     -2.46558247 </i>
   <i name="e_wo_entrp">     -2.45841806 </i>
   <i name="e_0_energy">     -2.46200026 </i>
  </energy>
  <time name="totalsc">   18.18   18.33</time>
 </calculation>
 <calculation>
  <scstep>
   <time name="total">    3.00    3.02</time>
   <energy>
    <i name="alphaZ">    211.42744628 </i>
    <i name="ewald">  -2159.85601325 </i>
    <i name="hartreedc">   -580.20583015 </i>
    <i name="XCdc">     12.62144271 </i>
    <i name="pawpsdc">   2530.21739004 </i>
    <i name="pawaedc">  -2464.95978424 </i>
    <i name="eentropy">     -0.00772427 </i>
    <i name="bandstr">   -137.15869258 </i>
    <i name="atom">   2585.62705738 </i>
    <i name="e_fr_energy">     -2.29468422 </i>
    <i name="e_wo_entrp">     -2.28695995 </i>
    <i name="e_0_energy">     -2.29082208 </i>
   </energy>
  </scstep>
  <scstep>
   <time name="total">    5.31    5.35</time>
   <energy>
    <i name="e_fr_energy">     -2.46476266 </i>
    <i name="e_wo_entrp">     -2.45703407 </i>
    <i name="e_0_energy">     -2.46089836 </i>
   </energy>
  </scstep>
  <scstep>
   <time name="total">    3.92    3.95</time>
   <energy>
    <i name="e_fr_energy">     -2.46732984 </i>
    <i name="e_wo_entrp">     -2.45957304 </i>
    <i name="e_0_energy">     -2.46345144 </i>
   </energy>
  </scstep>
  <scstep>
   <time name="total">    3.54    3.57</time>
   <energy>
    <i name="e_fr_energy">     -2.46750282 </i>
    <i name="e_wo_entrp">     -2.45972900 </i>
    <i name="e_0_energy">     -2.46361591 </i>
   </energy>
  </scstep>
  <scstep>
   <time name="total">    3.47    3.50</time>
   <energy>
    <i name="e_fr_energy">     -2.46752765 </i>
    <i name="e_wo_entrp">     -2.45974902 </i>
    <i name="e_0_energy">     -2.46363834 </i>
   </energy>
  </scstep>
  <scstep>
   <time name="total">    3.53    3.56</time>
   <energy>
    <i name="alphaZ">    211.42744628 </i>
    <i name="ewald">  -2159.85601325 </i>
    <i name="hartreedc">   -594.11942118 </i>
    <i name="XCdc">     13.14336090 </i>
    <i name="pawpsdc">   2530.61380077 </i>
    <i name="pawaedc">  -2465.62750123 </i>
    <i name="eentropy">     -0.00777977 </i>
    <i name="bandstr">   -123.66847966 </i>
    <i name="atom">   2585.62705738 </i>
    <i name="e_fr_energy">     -2.46752862 </i>
    <i name="e_wo_entrp">     -2.45974885 </i>
    <i name="e_0_energy">     -2.46363873 </i>
   </energy>
  </scstep>
  <structure>
   <crystal>
    <varray name="basis" >
     <v>       2.94131208       0.00000000       0.00000000 </v>
     <v>      -1.47065604       2.54725098       0.00000000 </v>
     <v>      -0.00000000       0.00000000       5.62145063 </v>
    </varray>
    <i name="volume">     42.11737008 </i>
    <varray name="rec_basis" >
     <v>       0.33998432       0.19629004      -0.00000000 </v>
     <v>      -0.00000000       0.39258008      -0.00000000 </v>
     <v>      -0.00000000      -0.00000000       0.17789003 </v>
    </varray>
   </crystal>
   <varray name="positions" >
    <v>       0.66666667       0.33333333       0.75000000 </v>
    <v>       0.33333333       0.66666667       0.25000000 </v>
   </varray>
  </structure>
  <varray name="forces" >
   <v>       0.00000000      -0.00000000       0.00000000 </v>
   <v>      -0.00000000       0.00000000      -0.00000000 </v>
  </varray>
  <varray name="stress" >
   <v>       3.66393638       0.00000000       0.00000000 </v>
   <v>       0.00000000       3.66393638       0.00000000 </v>
   <v>       0.00000000       0.00000000       2.23512307 </v>
  </varray>
  <energy>
   <i name="e_fr_energy">     -2.46752862 </i>
   <i name="e_wo_entrp">     -2.45974885 </i>
   <i name="e_0_energy">     -2.46363873 </i>
  </energy>
  <time name="totalsc">   24.21   24.41</time>
  <eigenvalues>
   <array>
    <dimension dim="1">band</dimension>
    <dimension dim="2">kpoint</dimension>
    <dimension dim="3">spin</dimension>
    <field>eigene</field>
    <field>occ</field>
    <set>
     <set comment="spin 1">
      <set comment="kpoint 1">
       <r>   -6.9872    1.0000 </r>
       <r>   -6.7298    1.0000 </r>
       <r>   -6.2799    1.0000 </r>
       <r>   -6.2799    1.0000 </r>
       <r>   -6.2283    1.0000 </r>
       <r>   -6.2283    1.0000 </r>
       <r>   -6.0666    1.0000 </r>
       <r>   -5.6894    1.0000 </r>
       <r>   -5.6894    1.0000 </r>
       <r>   -5.4395    1.0000 </r>
       <r>   -5.4395    1.0000 </r>
       <r>   -0.2581    1.0000 </r>
       <r>   -0.1902    1.0000 </r>
       <r>   13.3074    0.0000 </r>
       <r>   17.6373    0.0000 </r>
       <r>   17.8126    0.0000 </r>
       <r>   18.3280    0.0000 </r>
       <r>   18.3280    0.0000 </r>
       <r>   18.9352    0.0000 </r>
       <r>   20.0017    0.0000 </r>
       <r>   20.0017    0.0000 </r>
       <r>   22.5427    0.0000 </r>
       <r>   23.0335    0.0000 </r>
       <r>   23.0335    0.0000 </r>
       <r>   23.5556    0.0000 </r>
       <r>   24.6625    0.0000 </r>
       <r>   24.6625    0.0000 </r>
       <r>   24.7239    0.0000 </r>
       <r>   24.7239    0.0000 </r>
       <r>   25.8377    0.0000 </r>
       <r>   25.8377    0.0000 </r>
       <r>   26.3069    0.0000 </r>
       <r>   30.9102    0.0000 </r>
       <r>   34.6637    0.0000 </r>
       <r>   36.2303    0.0000 </r>
       <r>   36.2303    0.0000 </r>
       <r>   36.9837    0.0000 </r>
       <r>   36.9837    0.0000 </r>
       <r>   37.2477    0.0000 </r>
       <r>   37.7452    0.0000 </r>
       <r>   37.7452    0.0000 </r>
       <r>   37.9716    0.0000 </r>
       <r>   40.4482    0.0000 </r>
       <r>   40.4482    0.0000 </r>
       <r>   40.9302    0.0000 </r>
       <r>   41.4099    0.0000 </r>
       <r>   49.7334    0.0000 </r>
       <r>   53.9036    0.0000 </r>
       <r>   53.9036    0.0000 </r>
       <r>   53.9432    0.0000 </r>
       <r>   55.4017    0.0000 </r>
       <r>   55.4017    0.0000 </r>
       <r>   55.4958    0.0000 </r>
       <r>   55.4958    0.0000 </r>
       <r>   56.3356    0.0000 </r>
       <r>   56.5706    0.0000 </r>
       <r>   57.0623    0.0000 </r>
       <r>   57.0623    0.0000 </r>
       <r>   58.4117    0.0000 </r>
       <r>   59.1028    0.0000 </r>
       <r>   59.1028    0.0000 </r>
       <r>   62.3222    0.0000 </r>
       <r>   62.3222    0.0000 </r>
       <r>   63.1849    0.0000 </r>
       <r>   64.1223    0.0000 </r>
       <r>   64.1517    0.0000 </r>
       <r>   65.3117    0.0000 </r>
       <r>   65.8853    0.0000 </r>
       <r>   65.8853    0.0000 </r>
       <r>   66.5880    0.0000 </r>
       <r>   66.5880    0.0000 </r>
       <r>   66.8155    0.0000 </r>
       <r>   70.0694    0.0000 </r>
       <r>   70.0694    0.0000 </r>
       <r>   70.1664    0.0000 </r>
       <r>   70.1664    0.0000 </r>
       <r>   70.3794    0.0000 </r>
       <r>   71.0583    0.0000 </r>
       <r>   71.0583    0.0000 </r>
       <r>   71.1838    0.0000 </r>
       <r>   71.2141    0.0000 </r>
       <r>   75.3573    0.0000 </r>
       <r>   76.1614    0.0000 </r>
       <r>   76.6386    0.0000 </r>
       <r>   76.6386    0.0000 </r>
       <r>   76.8084    0.0000 </r>
       <r>   76.8084    0.0000 </r>
       <r>   77.3234    0.0000 </r>
       <r>   78.4997    0.0000 </r>
       <r>   79.5115    0.0000 </r>
       <r>   80.3846    0.0000 </r>
       <r>   81.1321    0.0000 </r>
       <r>   81.1322    0.0000 </r>
       <r>   84.3046    0.0000 </r>
       <r>   84.3066    0.0000 </r>
       <r>   85.3218    0.0000 </r>
      </set>
      <set comment="kpoint 2">
       <r>   -6.7989    1.0000 </r>
       <r>   -6.5509    1.0000 </r>
       <r>   -6.3649    1.0000 </r>
       <r>   -6.2591    1.0000 </r>
       <r>   -6.0824    1.0000 </r>
       <r>   -6.0375    1.0000 </r>
       <r>   -5.8744    1.0000 </r>
       <r>   -5.7541    1.0000 </r>
       <r>   -5.6863    1.0000 </r>
       <r>   -5.5974    1.0000 </r>
       <r>   -5.4404    1.0000 </r>
       <r>    0.1146    1.0000 </r>
       <r>    0.5490    1.0000 </r>
       <r>   13.2775    0.0000 </r>
       <r>   13.9812    0.0000 </r>
       <r>   15.7840    0.0000 </r>
       <r>   17.0082    0.0000 </r>
       <r>   17.4844    0.0000 </r>
       <r>   18.0555    0.0000 </r>
       <r>   18.7129    0.0000 </r>
       <r>   20.1858    0.0000 </r>
       <r>   20.5318    0.0000 </r>
       <r>   20.7248    0.0000 </r>
       <r>   21.8569    0.0000 </r>
       <r>   23.8648    0.0000 </r>
       <r>   25.2620    0.0000 </r>
       <r>   26.7514    0.0000 </r>
       <r>   27.1134    0.0000 </r>
       <r>   27.3398    0.0000 </r>
       <r>   29.3789    0.0000 </r>
       <r>   29.3868    0.0000 </r>
       <r>   30.3619    0.0000 </r>
       <r>   31.6144    0.0000 </r>
       <r>   32.7305    0.0000 </r>
       <r>   33.9607    0.0000 </r>
       <r>   34.0792    0.0000 </r>
       <r>   34.3550    0.0000 </r>
       <r>   36.1589    0.0000 </r>
       <r>   37.4734    0.0000 </r>
       <r>   37.5442    0.0000 </r>
       <r>   41.0561    0.0000 </r>
       <r>   41.2807    0.0000 </r>
       <r>   41.3972    0.0000 </r>
       <r>   41.7879    0.0000 </r>
       <r>   44.8384    0.0000 </r>
       <r>   45.4199    0.0000 </r>
       <r>   49.3951    0.0000 </r>
       <r>   51.2605    0.0000 </r>
       <r>   51.6515    0.0000 </r>
       <r>   53.2207    0.0000 </r>
       <r>   53.4733    0.0000 </r>
       <r>   54.4350    0.0000 </r>
       <r>   54.6839    0.0000 </r>
       <r>   55.1494    0.0000 </r>
       <r>   55.8486    0.0000 </r>
       <r>   56.0618    0.0000 </r>
       <r>   57.1830    0.0000 </r>
       <r>   57.2124    0.0000 </r>
       <r>   57.4145    0.0000 </r>
       <r>   58.1650    0.0000 </r>
       <r>   59.3440    0.0000 </r>
       <r>   59.9551    0.0000 </r>
       <r>   59.9860    0.0000 </r>
       <r>   61.4699    0.0000 </r>
       <r>   62.8410    0.0000 </r>
       <r>   62.9630    0.0000 </r>
       <r>   64.6665    0.0000 </r>
       <r>   64.9474    0.0000 </r>
       <r>   65.5247    0.0000 </r>
       <r>   66.0963    0.0000 </r>
       <r>   66.2825    0.0000 </r>
       <r>   66.4104    0.0000 </r>
       <r>   67.4276    0.0000 </r>
       <r>   69.3373    0.0000 </r>
       <r>   70.0505    0.0000 </r>
       <r>   70.1295    0.0000 </r>
       <r>   70.3211    0.0000 </r>
       <r>   71.6383    0.0000 </r>
       <r>   71.9363    0.0000 </r>
       <r>   72.7116    0.0000 </r>
       <r>   73.1174    0.0000 </r>
       <r>   74.6607    0.0000 </r>
       <r>   75.9517    0.0000 </r>
       <r>   76.0515    0.0000 </r>
       <r>   77.0631    0.0000 </r>
       <r>   77.1898    0.0000 </r>
       <r>   77.8422    0.0000 </r>
       <r>   78.2216    0.0000 </r>
       <r>   78.6400    0.0000 </r>
       <r>   79.2697    0.0000 </r>
       <r>   80.1632    0.0000 </r>
       <r>   80.2470    0.0000 </r>
       <r>   81.1712    0.0000 </r>
       <r>   82.4998    0.0000 </r>
       <r>   83.1617    0.0000 </r>
       <r>   83.3173    0.0000 </r>
      </set>
      <set comment="kpoint 3">
       <r>   -6.8839    1.0000 </r>
       <r>   -6.6779    1.0000 </r>
       <r>   -6.3559    1.0000 </r>
       <r>   -6.1737    1.0000 </r>
       <r>   -5.9958    1.0000 </r>
       <r>   -5.9146    1.0000 </r>
       <r>   -5.8818    1.0000 </r>
       <r>   -5.6115    1.0000 </r>
       <r>   -5.5837    1.0000 </r>
       <r>   -5.4585    1.0000 </r>
       <r>   -3.8678    1.0000 </r>
       <r>    1.2388    1.0000 </r>
       <r>    2.5449    0.9907 </r>
       <r>    7.8744    0.0000 </r>
       <r>   12.5105    0.0000 </r>
       <r>   13.0611    0.0000 </r>
       <r>   13.2538    0.0000 </r>
       <r>   16.3065    0.0000 </r>
       <r>   16.4673    0.0000 </r>
       <r>   17.9839    0.0000 </r>
       <r>   18.0681    0.0000 </r>
       <r>   18.7338    0.0000 </r>
       <r>   20.7896    0.0000 </r>
       <r>   21.5140    0.0000 </r>
       <r>   27.2822    0.0000 </r>
       <r>   27.3483    0.0000 </r>
       <r>   27.8939    0.0000 </r>
       <r>   28.6757    0.0000 </r>
       <r>   30.2411    0.0000 </r>
       <r>   31.0450    0.0000 </r>
       <r>   31.0816    0.0000 </r>
       <r>   31.5841    0.0000 </r>
       <r>   32.4702    0.0000 </r>
       <r>   34.2218    0.0000 </r>
       <r>   35.4868    0.0000 </r>
       <r>   36.1538    0.0000 </r>
       <r>   36.6863    0.0000 </r>
       <r>   37.4051    0.0000 </r>
       <r>   38.9668    0.0000 </r>
       <r>   40.3300    0.0000 </r>
       <r>   43.2081    0.0000 </r>
       <r>   43.3258    0.0000 </r>
       <r>   44.7830    0.0000 </r>
       <r>   46.5650    0.0000 </r>
       <r>   46.5929    0.0000 </r>
       <r>   46.8018    0.0000 </r>
       <r>   48.7981    0.0000 </r>
       <r>   48.9458    0.0000 </r>
       <r>   49.3146    0.0000 </r>
       <r>   50.1118    0.0000 </r>
       <r>   50.2321    0.0000 </r>
       <r>   50.4363    0.0000 </r>
       <r>   51.8603    0.0000 </r>
       <r>   52.5027    0.0000 </r>
       <r>   52.9337    0.0000 </r>
       <r>   54.5410    0.0000 </r>
       <r>   55.4835    0.0000 </r>
       <r>   55.9688    0.0000 </r>
       <r>   56.5157    0.0000 </r>
       <r>   57.5943    0.0000 </r>
       <r>   57.6172    0.0000 </r>
       <r>   58.1776    0.0000 </r>
       <r>   58.9056    0.0000 </r>
       <r>   60.6177    0.0000 </r>
       <r>   61.5714    0.0000 </r>
       <r>   61.6361    0.0000 </r>
       <r>   61.6945    0.0000 </r>
       <r>   61.7922    0.0000 </r>
       <r>   65.1257    0.0000 </r>
       <r>   66.4329    0.0000 </r>
       <r>   66.6649    0.0000 </r>
       <r>   66.9786    0.0000 </r>
       <r>   67.9127    0.0000 </r>
       <r>   68.3344    0.0000 </r>
       <r>   68.4274    0.0000 </r>
       <r>   68.9898    0.0000 </r>
       <r>   69.8800    0.0000 </r>
       <r>   70.5701    0.0000 </r>
       <r>   71.0066    0.0000 </r>
       <r>   71.7509    0.0000 </r>
       <r>   71.8522    0.0000 </r>
       <r>   73.2964    0.0000 </r>
       <r>   75.0353    0.0000 </r>
       <r>   75.2879    0.0000 </r>
       <r>   75.7975    0.0000 </r>
       <r>   76.2480    0.0000 </r>
       <r>   76.8585    0.0000 </r>
       <r>   78.5380    0.0000 </r>
       <r>   79.1620    0.0000 </r>
       <r>   79.2952    0.0000 </r>
       <r>   80.2177    0.0000 </r>
       <r>   80.6246    0.0000 </r>
       <r>   81.5433    0.0000 </r>
       <r>   81.6744    0.0000 </r>
       <r>   82.0985    0.0000 </r>
       <r>   83.6494    0.0000 </r>
      </set>
      <set comment="kpoint 4">
       <r>   -7.0929    1.0000 </r>
       <r>   -6.8967    1.0000 </r>
       <r>   -6.6821    1.0000 </r>
       <r>   -6.1986    1.0000 </r>
       <r>   -5.9747    1.0000 </r>
       <r>   -5.9316    1.0000 </r>
       <r>   -5.5442    1.0000 </r>
       <r>   -5.4810    1.0000 </r>
       <r>   -5.2065    1.0000 </r>
       <r>   -5.1849    1.0000 </r>
       <r>   -0.9711    1.0000 </r>
       <r>    2.7299    0.8529 </r>
       <r>    3.9695    0.0000 </r>
       <r>    5.1501    0.0000 </r>
       <r>    7.7101    0.0000 </r>
       <r>    9.2775    0.0000 </r>
       <r>   11.7972    0.0000 </r>
       <r>   16.1379    0.0000 </r>
       <r>   16.2937    0.0000 </r>
       <r>   16.9502    0.0000 </r>
       <r>   19.2482    0.0000 </r>
       <r>   19.8524    0.0000 </r>
       <r>   20.2717    0.0000 </r>
       <r>   21.4092    0.0000 </r>
       <r>   23.3008    0.0000 </r>
       <r>   24.6450    0.0000 </r>
       <r>   29.4521    0.0000 </r>
       <r>   30.6334    0.0000 </r>
       <r>   32.9787    0.0000 </r>
       <r>   33.0213    0.0000 </r>
       <r>   33.6747    0.0000 </r>
       <r>   34.2821    0.0000 </r>
       <r>   37.0513    0.0000 </r>
       <r>   37.1127    0.0000 </r>
       <r>   37.3322    0.0000 </r>
       <r>   37.5318    0.0000 </r>
       <r>   40.1104    0.0000 </r>
       <r>   41.1614    0.0000 </r>
       <r>   41.4413    0.0000 </r>
       <r>   41.9957    0.0000 </r>
       <r>   42.3277    0.0000 </r>
       <r>   43.1704    0.0000 </r>
       <r>   44.4843    0.0000 </r>
       <r>   44.8903    0.0000 </r>
       <r>   45.0524    0.0000 </r>
       <r>   45.4434    0.0000 </r>
       <r>   46.3643    0.0000 </r>
       <r>   47.1739    0.0000 </r>
       <r>   48.5602    0.0000 </r>
       <r>   49.1596    0.0000 </r>
       <r>   49.8429    0.0000 </r>
       <r>   51.2546    0.0000 </r>
       <r>   51.4923    0.0000 </r>
       <r>   52.2923    0.0000 </r>
       <r>   52.8154    0.0000 </r>
       <r>   53.1888    0.0000 </r>
       <r>   53.4150    0.0000 </r>
       <r>   54.7004    0.0000 </r>
       <r>   55.0406    0.0000 </r>
       <r>   55.8609    0.0000 </r>
       <r>   56.3674    0.0000 </r>
       <r>   56.5754    0.0000 </r>
       <r>   58.0825    0.0000 </r>
       <r>   58.1548    0.0000 </r>
       <r>   58.9525    0.0000 </r>
       <r>   59.1391    0.0000 </r>
       <r>   60.3686    0.0000 </r>
       <r>   62.3797    0.0000 </r>
       <r>   62.9844    0.0000 </r>
       <r>   64.9265    0.0000 </r>
       <r>   66.0839    0.0000 </r>
       <r>   66.8417    0.0000 </r>
       <r>   67.0614    0.0000 </r>
       <r>   68.6905    0.0000 </r>
       <r>   69.0981    0.0000 </r>
       <r>   70.7500    0.0000 </r>
       <r>   70.7662    0.0000 </r>
       <r>   71.0962    0.0000 </r>
       <r>   71.7962    0.0000 </r>
       <r>   71.8145    0.0000 </r>
       <r>   72.5373    0.0000 </r>
       <r>   72.6361    0.0000 </r>
       <r>   73.0432    0.0000 </r>
       <r>   75.2074    0.0000 </r>
       <r>   75.4963    0.0000 </r>
       <r>   76.2416    0.0000 </r>
       <r>   76.3461    0.0000 </r>
       <r>   76.9514    0.0000 </r>
       <r>   77.9961    0.0000 </r>
       <r>   78.5482    0.0000 </r>
       <r>   79.6556    0.0000 </r>
       <r>   79.6870    0.0000 </r>
       <r>   79.8992    0.0000 </r>
       <r>   80.5287    0.0000 </r>
       <r>   80.9169    0.0000 </r>
       <r>   82.3797    0.0000 </r>
      </set>
      <set comment="kpoint 5">
       <r>   -6.5729    1.0000 </r>
       <r>   -6.5395    1.0000 </r>
       <r>   -6.3433    1.0000 </r>
       <r>   -6.2544    1.0000 </r>
       <r>   -6.1711    1.0000 </r>
       <r>   -6.0284    1.0000 </r>
       <r>   -5.8934    1.0000 </r>
       <r>   -5.7626    1.0000 </r>
       <r>   -5.6739    1.0000 </r>
       <r>   -5.4918    1.0000 </r>
       <r>   -4.3767    1.0000 </r>
       <r>    0.8472    1.0000 </r>
       <r>    1.9342    1.0000 </r>
       <r>   10.6251    0.0000 </r>
       <r>   10.9830    0.0000 </r>
       <r>   14.8270    0.0000 </r>
       <r>   15.3352    0.0000 </r>
       <r>   15.6189    0.0000 </r>
       <r>   15.9474    0.0000 </r>
       <r>   16.3103    0.0000 </r>
       <r>   18.8684    0.0000 </r>
       <r>   20.1813    0.0000 </r>
       <r>   21.5263    0.0000 </r>
       <r>   24.4601    0.0000 </r>
       <r>   25.4326    0.0000 </r>
       <r>   25.5719    0.0000 </r>
       <r>   26.9667    0.0000 </r>
       <r>   29.0777    0.0000 </r>
       <r>   29.8773    0.0000 </r>
       <r>   29.9893    0.0000 </r>
       <r>   30.5265    0.0000 </r>
       <r>   31.0666    0.0000 </r>
       <r>   31.7202    0.0000 </r>
       <r>   34.4377    0.0000 </r>
       <r>   34.4627    0.0000 </r>
       <r>   35.0799    0.0000 </r>
       <r>   36.5951    0.0000 </r>
       <r>   37.1456    0.0000 </r>
       <r>   39.1341    0.0000 </r>
       <r>   39.5042    0.0000 </r>
       <r>   40.7515    0.0000 </r>
       <r>   41.7147    0.0000 </r>
       <r>   44.4488    0.0000 </r>
       <r>   46.2599    0.0000 </r>
       <r>   46.6867    0.0000 </r>
       <r>   47.7547    0.0000 </r>
       <r>   48.5729    0.0000 </r>
       <r>   48.7099    0.0000 </r>
       <r>   49.5898    0.0000 </r>
       <r>   50.0608    0.0000 </r>
       <r>   51.6480    0.0000 </r>
       <r>   52.3553    0.0000 </r>
       <r>   53.3653    0.0000 </r>
       <r>   53.6446    0.0000 </r>
       <r>   54.7793    0.0000 </r>
       <r>   54.9152    0.0000 </r>
       <r>   55.5554    0.0000 </r>
       <r>   56.6438    0.0000 </r>
       <r>   57.1470    0.0000 </r>
       <r>   57.6946    0.0000 </r>
       <r>   58.1897    0.0000 </r>
       <r>   58.9588    0.0000 </r>
       <r>   60.0707    0.0000 </r>
       <r>   60.9188    0.0000 </r>
       <r>   61.6484    0.0000 </r>
       <r>   61.7942    0.0000 </r>
       <r>   62.4855    0.0000 </r>
       <r>   62.7810    0.0000 </r>
       <r>   63.6481    0.0000 </r>
       <r>   63.8083    0.0000 </r>
       <r>   64.3196    0.0000 </r>
       <r>   65.3373    0.0000 </r>
       <r>   67.5709    0.0000 </r>
       <r>   68.1151    0.0000 </r>
       <r>   68.4909    0.0000 </r>
       <r>   69.6566    0.0000 </r>
       <r>   70.9068    0.0000 </r>
       <r>   71.9537    0.0000 </r>
       <r>   72.5363    0.0000 </r>
       <r>   72.6629    0.0000 </r>
       <r>   73.3991    0.0000 </r>
       <r>   74.6937    0.0000 </r>
       <r>   74.9121    0.0000 </r>
       <r>   75.6971    0.0000 </r>
       <r>   76.1165    0.0000 </r>
       <r>   77.2481    0.0000 </r>
       <r>   77.2542    0.0000 </r>
       <r>   78.0346    0.0000 </r>
       <r>   78.6442    0.0000 </r>
       <r>   79.0640    0.0000 </r>
       <r>   81.0646    0.0000 </r>
       <r>   81.0978    0.0000 </r>
       <r>   81.4386    0.0000 </r>
       <r>   81.9979    0.0000 </r>
       <r>   82.4249    0.0000 </r>
       <r>   83.3262    0.0000 </r>
      </set>
      <set comment="kpoint 6">
       <r>   -6.7938    1.0000 </r>
       <r>   -6.5990    1.0000 </r>
       <r>   -6.5334    1.0000 </r>
       <r>   -6.1794    1.0000 </r>
       <r>   -6.0894    1.0000 </r>
       <r>   -5.9468    1.0000 </r>
       <r>   -5.8468    1.0000 </r>
       <r>   -5.6148    1.0000 </r>
       <r>   -5.5549    1.0000 </r>
       <r>   -5.2987    1.0000 </r>
       <r>   -2.0152    1.0000 </r>
       <r>    2.6505    0.9464 </r>
       <r>    4.2522    0.0000 </r>
       <r>    5.7488    0.0000 </r>
       <r>    9.0924    0.0000 </r>
       <r>   10.4109    0.0000 </r>
       <r>   11.3862    0.0000 </r>
       <r>   13.8117    0.0000 </r>
       <r>   14.5220    0.0000 </r>
       <r>   18.0225    0.0000 </r>
       <r>   19.5367    0.0000 </r>
       <r>   20.0954    0.0000 </r>
       <r>   23.7758    0.0000 </r>
       <r>   24.1991    0.0000 </r>
       <r>   25.6820    0.0000 </r>
       <r>   25.8151    0.0000 </r>
       <r>   26.9960    0.0000 </r>
       <r>   28.1221    0.0000 </r>
       <r>   28.1337    0.0000 </r>
       <r>   30.2251    0.0000 </r>
       <r>   32.0003    0.0000 </r>
       <r>   35.0128    0.0000 </r>
       <r>   36.4377    0.0000 </r>
       <r>   37.3385    0.0000 </r>
       <r>   38.2287    0.0000 </r>
       <r>   38.4037    0.0000 </r>
       <r>   39.0620    0.0000 </r>
       <r>   40.5604    0.0000 </r>
       <r>   40.7492    0.0000 </r>
       <r>   41.3475    0.0000 </r>
       <r>   42.4633    0.0000 </r>
       <r>   42.8465    0.0000 </r>
       <r>   43.8085    0.0000 </r>
       <r>   44.9228    0.0000 </r>
       <r>   45.6651    0.0000 </r>
       <r>   46.7294    0.0000 </r>
       <r>   47.3719    0.0000 </r>
       <r>   47.9338    0.0000 </r>
       <r>   49.4157    0.0000 </r>
       <r>   49.9382    0.0000 </r>
       <r>   50.4902    0.0000 </r>
       <r>   51.3094    0.0000 </r>
       <r>   51.9359    0.0000 </r>
       <r>   52.1791    0.0000 </r>
       <r>   53.4723    0.0000 </r>
       <r>   53.7917    0.0000 </r>
       <r>   54.5642    0.0000 </r>
       <r>   54.9295    0.0000 </r>
       <r>   55.5342    0.0000 </r>
       <r>   55.7561    0.0000 </r>
       <r>   57.0586    0.0000 </r>
       <r>   58.1580    0.0000 </r>
       <r>   58.7136    0.0000 </r>
       <r>   59.2964    0.0000 </r>
       <r>   59.7757    0.0000 </r>
       <r>   60.7728    0.0000 </r>
       <r>   61.6168    0.0000 </r>
       <r>   61.9716    0.0000 </r>
       <r>   62.3329    0.0000 </r>
       <r>   62.4297    0.0000 </r>
       <r>   63.8613    0.0000 </r>
       <r>   64.2606    0.0000 </r>
       <r>   65.9171    0.0000 </r>
       <r>   66.2313    0.0000 </r>
       <r>   67.2200    0.0000 </r>
       <r>   67.9974    0.0000 </r>
       <r>   69.5749    0.0000 </r>
       <r>   69.8947    0.0000 </r>
       <r>   71.6460    0.0000 </r>
       <r>   71.9896    0.0000 </r>
       <r>   73.1776    0.0000 </r>
       <r>   74.0022    0.0000 </r>
       <r>   75.3012    0.0000 </r>
       <r>   76.0021    0.0000 </r>
       <r>   76.3926    0.0000 </r>
       <r>   77.2075    0.0000 </r>
       <r>   77.3549    0.0000 </r>
       <r>   77.4837    0.0000 </r>
       <r>   78.0978    0.0000 </r>
       <r>   78.4709    0.0000 </r>
       <r>   79.6491    0.0000 </r>
       <r>   80.4587    0.0000 </r>
       <r>   80.9151    0.0000 </r>
       <r>   81.8977    0.0000 </r>
       <r>   82.1319    0.0000 </r>
       <r>   82.3840    0.0000 </r>
      </set>
      <set comment="kpoint 7">
       <r>   -6.9046    1.0000 </r>
       <r>   -6.6971    1.0000 </r>
       <r>   -6.6723    1.0000 </r>
       <r>   -6.2021    1.0000 </r>
       <r>   -6.0717    1.0000 </r>
       <r>   -5.9016    1.0000 </r>
       <r>   -5.6226    1.0000 </r>
       <r>   -5.5804    1.0000 </r>
       <r>   -5.3272    1.0000 </r>
       <r>   -5.3165    1.0000 </r>
       <r>    1.1613    1.0000 </r>
       <r>    1.5488    1.0000 </r>
       <r>    5.4140    0.0000 </r>
       <r>    6.4782    0.0000 </r>
       <r>    6.4903    0.0000 </r>
       <r>    8.5280    0.0000 </r>
       <r>    8.5789    0.0000 </r>
       <r>   13.1624    0.0000 </r>
       <r>   14.0981    0.0000 </r>
       <r>   19.5988    0.0000 </r>
       <r>   20.5563    0.0000 </r>
       <r>   20.6557    0.0000 </r>
       <r>   22.1894    0.0000 </r>
       <r>   22.8088    0.0000 </r>
       <r>   23.9735    0.0000 </r>
       <r>   26.0642    0.0000 </r>
       <r>   27.1467    0.0000 </r>
       <r>   27.8370    0.0000 </r>
       <r>   31.6540    0.0000 </r>
       <r>   32.4022    0.0000 </r>
       <r>   35.1988    0.0000 </r>
       <r>   35.2947    0.0000 </r>
       <r>   36.4551    0.0000 </r>
       <r>   36.9650    0.0000 </r>
       <r>   37.4567    0.0000 </r>
       <r>   37.8385    0.0000 </r>
       <r>   41.3982    0.0000 </r>
       <r>   41.7871    0.0000 </r>
       <r>   41.9913    0.0000 </r>
       <r>   43.1140    0.0000 </r>
       <r>   43.1953    0.0000 </r>
       <r>   43.9860    0.0000 </r>
       <r>   44.4141    0.0000 </r>
       <r>   45.1759    0.0000 </r>
       <r>   45.9551    0.0000 </r>
       <r>   47.9907    0.0000 </r>
       <r>   48.2356    0.0000 </r>
       <r>   48.3067    0.0000 </r>
       <r>   48.6958    0.0000 </r>
       <r>   48.8588    0.0000 </r>
       <r>   49.1741    0.0000 </r>
       <r>   49.5185    0.0000 </r>
       <r>   49.9965    0.0000 </r>
       <r>   50.3084    0.0000 </r>
       <r>   51.4729    0.0000 </r>
       <r>   52.6754    0.0000 </r>
       <r>   54.3081    0.0000 </r>
       <r>   54.8272    0.0000 </r>
       <r>   55.5316    0.0000 </r>
       <r>   55.5863    0.0000 </r>
       <r>   56.8909    0.0000 </r>
       <r>   57.0350    0.0000 </r>
       <r>   58.2139    0.0000 </r>
       <r>   58.5987    0.0000 </r>
       <r>   58.6707    0.0000 </r>
       <r>   59.8167    0.0000 </r>
       <r>   60.8764    0.0000 </r>
       <r>   61.1227    0.0000 </r>
       <r>   61.3405    0.0000 </r>
       <r>   62.6374    0.0000 </r>
       <r>   63.4580    0.0000 </r>
       <r>   65.4340    0.0000 </r>
       <r>   65.4700    0.0000 </r>
       <r>   65.6467    0.0000 </r>
       <r>   67.6415    0.0000 </r>
       <r>   68.2757    0.0000 </r>
       <r>   68.6968    0.0000 </r>
       <r>   69.7698    0.0000 </r>
       <r>   71.6608    0.0000 </r>
       <r>   72.6539    0.0000 </r>
       <r>   72.8514    0.0000 </r>
       <r>   73.1985    0.0000 </r>
       <r>   74.5859    0.0000 </r>
       <r>   75.0032    0.0000 </r>
       <r>   76.0061    0.0000 </r>
       <r>   76.0809    0.0000 </r>
       <r>   76.1443    0.0000 </r>
       <r>   77.7704    0.0000 </r>
       <r>   78.0665    0.0000 </r>
       <r>   78.1076    0.0000 </r>
       <r>   79.2319    0.0000 </r>
       <r>   79.4535    0.0000 </r>
       <r>   79.7294    0.0000 </r>
       <r>   81.1801    0.0000 </r>
       <r>   81.9311    0.0000 </r>
       <r>   82.4539    0.0000 </r>
      </set>
      <set comment="kpoint 8">
       <r>   -6.5779    1.0000 </r>
       <r>   -6.4330    1.0000 </r>
       <r>   -6.3749    1.0000 </r>
       <r>   -6.2344    1.0000 </r>
       <r>   -6.1105    1.0000 </r>
       <r>   -5.9897    1.0000 </r>
       <r>   -5.9123    1.0000 </r>
       <r>   -5.7369    1.0000 </r>
       <r>   -5.7006    1.0000 </r>
       <r>   -5.3843    1.0000 </r>
       <r>    0.8708    1.0000 </r>
       <r>    4.3763    0.0000 </r>
       <r>    4.8235    0.0000 </r>
       <r>    5.3680    0.0000 </r>
       <r>    6.7693    0.0000 </r>
       <r>    9.2102    0.0000 </r>
       <r>    9.2118    0.0000 </r>
       <r>    9.8752    0.0000 </r>
       <r>   11.3837    0.0000 </r>
       <r>   20.7307    0.0000 </r>
       <r>   20.7793    0.0000 </r>
       <r>   24.0927    0.0000 </r>
       <r>   24.2895    0.0000 </r>
       <r>   24.3220    0.0000 </r>
       <r>   24.4483    0.0000 </r>
       <r>   25.3691    0.0000 </r>
       <r>   26.1783    0.0000 </r>
       <r>   29.2306    0.0000 </r>
       <r>   29.4328    0.0000 </r>
       <r>   31.0357    0.0000 </r>
       <r>   31.2050    0.0000 </r>
       <r>   31.9651    0.0000 </r>
       <r>   35.1482    0.0000 </r>
       <r>   36.7866    0.0000 </r>
       <r>   39.9491    0.0000 </r>
       <r>   41.2121    0.0000 </r>
       <r>   41.4587    0.0000 </r>
       <r>   42.1593    0.0000 </r>
       <r>   42.8834    0.0000 </r>
       <r>   44.1362    0.0000 </r>
       <r>   44.2066    0.0000 </r>
       <r>   44.2362    0.0000 </r>
       <r>   44.3453    0.0000 </r>
       <r>   46.7337    0.0000 </r>
       <r>   47.0110    0.0000 </r>
       <r>   47.6812    0.0000 </r>
       <r>   47.7561    0.0000 </r>
       <r>   48.3012    0.0000 </r>
       <r>   48.7692    0.0000 </r>
       <r>   48.7945    0.0000 </r>
       <r>   50.2902    0.0000 </r>
       <r>   50.3596    0.0000 </r>
       <r>   50.6725    0.0000 </r>
       <r>   50.7397    0.0000 </r>
       <r>   52.6564    0.0000 </r>
       <r>   52.8024    0.0000 </r>
       <r>   53.1266    0.0000 </r>
       <r>   53.6509    0.0000 </r>
       <r>   54.7989    0.0000 </r>
       <r>   56.2041    0.0000 </r>
       <r>   56.5021    0.0000 </r>
       <r>   56.5735    0.0000 </r>
       <r>   56.6545    0.0000 </r>
       <r>   57.7008    0.0000 </r>
       <r>   58.8959    0.0000 </r>
       <r>   58.9684    0.0000 </r>
       <r>   60.4253    0.0000 </r>
       <r>   60.5616    0.0000 </r>
       <r>   62.6202    0.0000 </r>
       <r>   62.9847    0.0000 </r>
       <r>   63.4744    0.0000 </r>
       <r>   63.9324    0.0000 </r>
       <r>   65.3180    0.0000 </r>
       <r>   65.8843    0.0000 </r>
       <r>   66.3589    0.0000 </r>
       <r>   66.9176    0.0000 </r>
       <r>   67.6144    0.0000 </r>
       <r>   68.8740    0.0000 </r>
       <r>   69.0515    0.0000 </r>
       <r>   70.1862    0.0000 </r>
       <r>   71.3633    0.0000 </r>
       <r>   71.9246    0.0000 </r>
       <r>   72.2226    0.0000 </r>
       <r>   72.6328    0.0000 </r>
       <r>   76.4951    0.0000 </r>
       <r>   76.8939    0.0000 </r>
       <r>   77.0510    0.0000 </r>
       <r>   77.2706    0.0000 </r>
       <r>   77.9304    0.0000 </r>
       <r>   79.5359    0.0000 </r>
       <r>   79.9332    0.0000 </r>
       <r>   80.8026    0.0000 </r>
       <r>   80.9189    0.0000 </r>
       <r>   83.0965    0.0000 </r>
       <r>   85.0737    0.0000 </r>
       <r>   85.3205    0.0000 </r>
      </set>
      <set comment="kpoint 9">
       <r>   -6.9225    1.0000 </r>
       <r>   -6.7927    1.0000 </r>
       <r>   -6.2788    1.0000 </r>
       <r>   -6.2788    1.0000 </r>
       <r>   -6.2517    1.0000 </r>
       <r>   -6.2517    1.0000 </r>
       <r>   -5.6148    1.0000 </r>
       <r>   -5.6148    1.0000 </r>
       <r>   -5.4912    1.0000 </r>
       <r>   -5.4912    1.0000 </r>
       <r>   -5.4008    1.0000 </r>
       <r>   -3.4242    1.0000 </r>
       <r>    4.0542    0.0000 </r>
       <r>    9.1540    0.0000 </r>
       <r>   17.7648    0.0000 </r>
       <r>   18.3446    0.0000 </r>
       <r>   18.7803    0.0000 </r>
       <r>   18.7803    0.0000 </r>
       <r>   19.6989    0.0000 </r>
       <r>   19.6989    0.0000 </r>
       <r>   22.0466    0.0000 </r>
       <r>   22.4346    0.0000 </r>
       <r>   22.4346    0.0000 </r>
       <r>   22.5314    0.0000 </r>
       <r>   22.5314    0.0000 </r>
       <r>   23.5617    0.0000 </r>
       <r>   23.9803    0.0000 </r>
       <r>   26.6246    0.0000 </r>
       <r>   27.4336    0.0000 </r>
       <r>   27.4336    0.0000 </r>
       <r>   27.9103    0.0000 </r>
       <r>   27.9103    0.0000 </r>
       <r>   29.5564    0.0000 </r>
       <r>   29.8340    0.0000 </r>
       <r>   32.5267    0.0000 </r>
       <r>   32.5267    0.0000 </r>
       <r>   33.6609    0.0000 </r>
       <r>   33.6609    0.0000 </r>
       <r>   35.9202    0.0000 </r>
       <r>   37.9839    0.0000 </r>
       <r>   42.4034    0.0000 </r>
       <r>   42.4034    0.0000 </r>
       <r>   43.7564    0.0000 </r>
       <r>   43.7564    0.0000 </r>
       <r>   44.7425    0.0000 </r>
       <r>   45.6937    0.0000 </r>
       <r>   50.1529    0.0000 </r>
       <r>   51.0667    0.0000 </r>
       <r>   51.0667    0.0000 </r>
       <r>   51.0890    0.0000 </r>
       <r>   51.0890    0.0000 </r>
       <r>   53.2296    0.0000 </r>
       <r>   55.1185    0.0000 </r>
       <r>   55.4098    0.0000 </r>
       <r>   55.4098    0.0000 </r>
       <r>   55.5616    0.0000 </r>
       <r>   55.5616    0.0000 </r>
       <r>   56.3159    0.0000 </r>
       <r>   56.9302    0.0000 </r>
       <r>   57.8201    0.0000 </r>
       <r>   60.6621    0.0000 </r>
       <r>   64.5617    0.0000 </r>
       <r>   64.5617    0.0000 </r>
       <r>   65.1887    0.0000 </r>
       <r>   65.1887    0.0000 </r>
       <r>   66.3219    0.0000 </r>
       <r>   66.3219    0.0000 </r>
       <r>   66.4621    0.0000 </r>
       <r>   66.7523    0.0000 </r>
       <r>   66.7523    0.0000 </r>
       <r>   67.6655    0.0000 </r>
       <r>   68.4374    0.0000 </r>
       <r>   68.6040    0.0000 </r>
       <r>   68.6040    0.0000 </r>
       <r>   68.7925    0.0000 </r>
       <r>   71.2131    0.0000 </r>
       <r>   71.2131    0.0000 </r>
       <r>   72.4051    0.0000 </r>
       <r>   73.1438    0.0000 </r>
       <r>   73.1439    0.0000 </r>
       <r>   73.8649    0.0000 </r>
       <r>   74.5299    0.0000 </r>
       <r>   74.5299    0.0000 </r>
       <r>   75.6669    0.0000 </r>
       <r>   77.1670    0.0000 </r>
       <r>   77.1887    0.0000 </r>
       <r>   77.1927    0.0000 </r>
       <r>   77.4539    0.0000 </r>
       <r>   78.6698    0.0000 </r>
       <r>   78.6698    0.0000 </r>
       <r>   79.7036    0.0000 </r>
       <r>   79.7951    0.0000 </r>
       <r>   79.7951    0.0000 </r>
       <r>   80.1405    0.0000 </r>
       <r>   82.0565    0.0000 </r>
       <r>   82.7116    0.0000 </r>
      </set>
      <set comment="kpoint 10">
       <r>   -6.7335    1.0000 </r>
       <r>   -6.6056    1.0000 </r>
       <r>   -6.3488    1.0000 </r>
       <r>   -6.3096    1.0000 </r>
       <r>   -6.0876    1.0000 </r>
       <r>   -6.0624    1.0000 </r>
       <r>   -5.8730    1.0000 </r>
       <r>   -5.7744    1.0000 </r>
       <r>   -5.6592    1.0000 </r>
       <r>   -5.5063    1.0000 </r>
       <r>   -4.8241    1.0000 </r>
       <r>   -2.8433    1.0000 </r>
       <r>    4.5781    0.0000 </r>
       <r>    9.6640    0.0000 </r>
       <r>   13.8319    0.0000 </r>
       <r>   15.4344    0.0000 </r>
       <r>   16.4372    0.0000 </r>
       <r>   17.4415    0.0000 </r>
       <r>   18.3111    0.0000 </r>
       <r>   18.3975    0.0000 </r>
       <r>   21.4534    0.0000 </r>
       <r>   22.3496    0.0000 </r>
       <r>   23.5223    0.0000 </r>
       <r>   24.2274    0.0000 </r>
       <r>   24.7573    0.0000 </r>
       <r>   24.8012    0.0000 </r>
       <r>   25.8713    0.0000 </r>
       <r>   25.9664    0.0000 </r>
       <r>   27.6244    0.0000 </r>
       <r>   27.9574    0.0000 </r>
       <r>   28.4828    0.0000 </r>
       <r>   29.1706    0.0000 </r>
       <r>   29.4286    0.0000 </r>
       <r>   31.4221    0.0000 </r>
       <r>   32.2296    0.0000 </r>
       <r>   33.7034    0.0000 </r>
       <r>   35.8214    0.0000 </r>
       <r>   35.8746    0.0000 </r>
       <r>   38.0111    0.0000 </r>
       <r>   39.1996    0.0000 </r>
       <r>   41.1873    0.0000 </r>
       <r>   41.3653    0.0000 </r>
       <r>   43.4213    0.0000 </r>
       <r>   45.1345    0.0000 </r>
       <r>   45.4082    0.0000 </r>
       <r>   46.8961    0.0000 </r>
       <r>   48.2943    0.0000 </r>
       <r>   49.2993    0.0000 </r>
       <r>   51.1417    0.0000 </r>
       <r>   52.4322    0.0000 </r>
       <r>   52.8485    0.0000 </r>
       <r>   53.7866    0.0000 </r>
       <r>   54.5376    0.0000 </r>
       <r>   54.8099    0.0000 </r>
       <r>   54.8201    0.0000 </r>
       <r>   55.1372    0.0000 </r>
       <r>   55.8604    0.0000 </r>
       <r>   56.2441    0.0000 </r>
       <r>   56.5795    0.0000 </r>
       <r>   58.3247    0.0000 </r>
       <r>   59.0675    0.0000 </r>
       <r>   60.1286    0.0000 </r>
       <r>   60.2356    0.0000 </r>
       <r>   61.4193    0.0000 </r>
       <r>   62.1530    0.0000 </r>
       <r>   63.8131    0.0000 </r>
       <r>   65.0008    0.0000 </r>
       <r>   65.0478    0.0000 </r>
       <r>   66.8581    0.0000 </r>
       <r>   67.1582    0.0000 </r>
       <r>   67.5357    0.0000 </r>
       <r>   68.0439    0.0000 </r>
       <r>   68.5998    0.0000 </r>
       <r>   69.0653    0.0000 </r>
       <r>   69.3255    0.0000 </r>
       <r>   70.0710    0.0000 </r>
       <r>   71.6122    0.0000 </r>
       <r>   71.8674    0.0000 </r>
       <r>   72.7102    0.0000 </r>
       <r>   74.7817    0.0000 </r>
       <r>   75.3643    0.0000 </r>
       <r>   75.8343    0.0000 </r>
       <r>   76.1197    0.0000 </r>
       <r>   76.4759    0.0000 </r>
       <r>   77.0047    0.0000 </r>
       <r>   77.1493    0.0000 </r>
       <r>   77.3864    0.0000 </r>
       <r>   77.5576    0.0000 </r>
       <r>   78.4900    0.0000 </r>
       <r>   79.0871    0.0000 </r>
       <r>   79.1962    0.0000 </r>
       <r>   79.2429    0.0000 </r>
       <r>   80.2002    0.0000 </r>
       <r>   80.5891    0.0000 </r>
       <r>   80.8188    0.0000 </r>
       <r>   82.1483    0.0000 </r>
      </set>
      <set comment="kpoint 11">
       <r>   -6.8277    1.0000 </r>
       <r>   -6.7239    1.0000 </r>
       <r>   -6.4634    1.0000 </r>
       <r>   -6.3210    1.0000 </r>
       <r>   -5.9084    1.0000 </r>
       <r>   -5.8015    1.0000 </r>
       <r>   -5.7350    1.0000 </r>
       <r>   -5.6488    1.0000 </r>
       <r>   -5.5805    1.0000 </r>
       <r>   -5.5107    1.0000 </r>
       <r>   -3.2249    1.0000 </r>
       <r>   -1.2877    1.0000 </r>
       <r>    6.0523    0.0000 </r>
       <r>    8.4381    0.0000 </r>
       <r>   10.2081    0.0000 </r>
       <r>   11.0685    0.0000 </r>
       <r>   13.9822    0.0000 </r>
       <r>   15.9736    0.0000 </r>
       <r>   16.5981    0.0000 </r>
       <r>   17.1877    0.0000 </r>
       <r>   17.3775    0.0000 </r>
       <r>   21.5172    0.0000 </r>
       <r>   22.7635    0.0000 </r>
       <r>   23.4383    0.0000 </r>
       <r>   24.7560    0.0000 </r>
       <r>   26.7202    0.0000 </r>
       <r>   27.1729    0.0000 </r>
       <r>   28.5677    0.0000 </r>
       <r>   29.5237    0.0000 </r>
       <r>   30.1111    0.0000 </r>
       <r>   30.5312    0.0000 </r>
       <r>   32.2530    0.0000 </r>
       <r>   33.9389    0.0000 </r>
       <r>   34.0888    0.0000 </r>
       <r>   35.0506    0.0000 </r>
       <r>   35.6693    0.0000 </r>
       <r>   38.4513    0.0000 </r>
       <r>   38.8666    0.0000 </r>
       <r>   39.7836    0.0000 </r>
       <r>   40.8525    0.0000 </r>
       <r>   41.1765    0.0000 </r>
       <r>   42.7411    0.0000 </r>
       <r>   44.0909    0.0000 </r>
       <r>   45.4472    0.0000 </r>
       <r>   46.8476    0.0000 </r>
       <r>   47.0504    0.0000 </r>
       <r>   47.6281    0.0000 </r>
       <r>   47.8393    0.0000 </r>
       <r>   49.1728    0.0000 </r>
       <r>   49.7550    0.0000 </r>
       <r>   50.1301    0.0000 </r>
       <r>   52.4530    0.0000 </r>
       <r>   53.0501    0.0000 </r>
       <r>   53.2342    0.0000 </r>
       <r>   53.9527    0.0000 </r>
       <r>   55.0472    0.0000 </r>
       <r>   55.5626    0.0000 </r>
       <r>   55.7067    0.0000 </r>
       <r>   56.4093    0.0000 </r>
       <r>   57.4830    0.0000 </r>
       <r>   57.5651    0.0000 </r>
       <r>   57.8155    0.0000 </r>
       <r>   58.2159    0.0000 </r>
       <r>   58.7532    0.0000 </r>
       <r>   60.7965    0.0000 </r>
       <r>   61.5032    0.0000 </r>
       <r>   63.7418    0.0000 </r>
       <r>   64.0852    0.0000 </r>
       <r>   64.8649    0.0000 </r>
       <r>   66.1054    0.0000 </r>
       <r>   67.1531    0.0000 </r>
       <r>   67.2718    0.0000 </r>
       <r>   67.4441    0.0000 </r>
       <r>   67.9740    0.0000 </r>
       <r>   68.4553    0.0000 </r>
       <r>   69.0872    0.0000 </r>
       <r>   69.5173    0.0000 </r>
       <r>   70.3940    0.0000 </r>
       <r>   71.0311    0.0000 </r>
       <r>   71.8317    0.0000 </r>
       <r>   72.2166    0.0000 </r>
       <r>   73.5866    0.0000 </r>
       <r>   74.1188    0.0000 </r>
       <r>   75.2016    0.0000 </r>
       <r>   75.2185    0.0000 </r>
       <r>   75.8970    0.0000 </r>
       <r>   76.7936    0.0000 </r>
       <r>   77.1771    0.0000 </r>
       <r>   78.0702    0.0000 </r>
       <r>   79.0029    0.0000 </r>
       <r>   79.1094    0.0000 </r>
       <r>   80.8122    0.0000 </r>
       <r>   82.3135    0.0000 </r>
       <r>   82.4616    0.0000 </r>
       <r>   83.4824    0.0000 </r>
       <r>   83.6460    0.0000 </r>
      </set>
      <set comment="kpoint 12">
       <r>   -7.0345    1.0000 </r>
       <r>   -6.9517    1.0000 </r>
       <r>   -6.6914    1.0000 </r>
       <r>   -6.5007    1.0000 </r>
       <r>   -5.8584    1.0000 </r>
       <r>   -5.6648    1.0000 </r>
       <r>   -5.6128    1.0000 </r>
       <r>   -5.4326    1.0000 </r>
       <r>   -5.1993    1.0000 </r>
       <r>   -5.1879    1.0000 </r>
       <r>   -0.4424    1.0000 </r>
       <r>    1.1993    1.0000 </r>
       <r>    3.8902    0.0000 </r>
       <r>    5.3419    0.0000 </r>
       <r>    8.6663    0.0000 </r>
       <r>   11.3020    0.0000 </r>
       <r>   12.5506    0.0000 </r>
       <r>   14.5368    0.0000 </r>
       <r>   15.1485    0.0000 </r>
       <r>   16.2828    0.0000 </r>
       <r>   16.6196    0.0000 </r>
       <r>   17.7309    0.0000 </r>
       <r>   22.6699    0.0000 </r>
       <r>   23.0078    0.0000 </r>
       <r>   26.4465    0.0000 </r>
       <r>   26.5963    0.0000 </r>
       <r>   26.7056    0.0000 </r>
       <r>   29.5917    0.0000 </r>
       <r>   33.1218    0.0000 </r>
       <r>   33.6560    0.0000 </r>
       <r>   34.2340    0.0000 </r>
       <r>   34.6258    0.0000 </r>
       <r>   35.7288    0.0000 </r>
       <r>   37.1056    0.0000 </r>
       <r>   37.2871    0.0000 </r>
       <r>   39.2001    0.0000 </r>
       <r>   40.3870    0.0000 </r>
       <r>   40.5274    0.0000 </r>
       <r>   40.6468    0.0000 </r>
       <r>   41.3991    0.0000 </r>
       <r>   42.1185    0.0000 </r>
       <r>   42.5666    0.0000 </r>
       <r>   43.2232    0.0000 </r>
       <r>   43.3429    0.0000 </r>
       <r>   45.1440    0.0000 </r>
       <r>   45.7344    0.0000 </r>
       <r>   46.4004    0.0000 </r>
       <r>   47.2761    0.0000 </r>
       <r>   49.1853    0.0000 </r>
       <r>   49.5443    0.0000 </r>
       <r>   49.7717    0.0000 </r>
       <r>   50.3889    0.0000 </r>
       <r>   51.0150    0.0000 </r>
       <r>   51.6856    0.0000 </r>
       <r>   52.7741    0.0000 </r>
       <r>   53.1571    0.0000 </r>
       <r>   54.4110    0.0000 </r>
       <r>   55.9643    0.0000 </r>
       <r>   56.3325    0.0000 </r>
       <r>   56.4288    0.0000 </r>
       <r>   57.1546    0.0000 </r>
       <r>   57.3694    0.0000 </r>
       <r>   58.6939    0.0000 </r>
       <r>   59.1893    0.0000 </r>
       <r>   60.0493    0.0000 </r>
       <r>   60.4513    0.0000 </r>
       <r>   62.2809    0.0000 </r>
       <r>   62.3775    0.0000 </r>
       <r>   63.3824    0.0000 </r>
       <r>   64.0527    0.0000 </r>
       <r>   65.2833    0.0000 </r>
       <r>   65.7366    0.0000 </r>
       <r>   66.5012    0.0000 </r>
       <r>   67.4262    0.0000 </r>
       <r>   67.9725    0.0000 </r>
       <r>   68.2952    0.0000 </r>
[...]
        <r>  0.1033  0.0603  0.0082  0.0202  0.0297  0.0048  0.0052  0.0016  0.0101 </r>
        <r>  0.1033  0.0603  0.0082  0.0202  0.0297  0.0048  0.0052  0.0016  0.0101 </r>
       </set>
       <set comment="band 12">
        <r>  0.0681  0.0722  0.0262  0.0248  0.0225  0.0110  0.0001  0.0037  0.0080 </r>
        <r>  0.0681  0.0722  0.0262  0.0248  0.0225  0.0110  0.0001  0.0037  0.0080 </r>
       </set>
       <set comment="band 13">
        <r>  0.1764  0.0293  0.0047  0.0270  0.0039  0.0049  0.0108  0.0035  0.0099 </r>
        <r>  0.1764  0.0293  0.0047  0.0270  0.0039  0.0049  0.0108  0.0035  0.0099 </r>
       </set>
       <set comment="band 14">
        <r>  0.0453  0.0444  0.0026  0.0762  0.0122  0.0023  0.0042  0.0054  0.0325 </r>
        <r>  0.0453  0.0444  0.0026  0.0762  0.0122  0.0023  0.0042  0.0054  0.0325 </r>
       </set>
       <set comment="band 15">
        <r>  0.1177  0.0372  0.0290  0.0372  0.0052  0.0103  0.0028  0.0075  0.0122 </r>
        <r>  0.1177  0.0372  0.0290  0.0372  0.0052  0.0103  0.0028  0.0075  0.0122 </r>
       </set>
       <set comment="band 16">
        <r>  0.0184  0.0485  0.0194  0.0815  0.0122  0.0040  0.0018  0.0113  0.0309 </r>
        <r>  0.0184  0.0485  0.0194  0.0815  0.0122  0.0040  0.0018  0.0113  0.0309 </r>
       </set>
       <set comment="band 17">
        <r>  0.0350  0.0243  0.0958  0.0181  0.0052  0.0257  0.0059  0.0088  0.0051 </r>
        <r>  0.0350  0.0243  0.0958  0.0181  0.0052  0.0257  0.0059  0.0088  0.0051 </r>
       </set>
       <set comment="band 18">
        <r>  0.0061  0.0383  0.1495  0.0265  0.0044  0.0033  0.0001  0.0067  0.0059 </r>
        <r>  0.0061  0.0383  0.1495  0.0265  0.0044  0.0033  0.0001  0.0067  0.0059 </r>
       </set>
       <set comment="band 19">
        <r>  0.0052  0.0141  0.0210  0.0319  0.0033  0.0310  0.0006  0.0443  0.0096 </r>
        <r>  0.0052  0.0141  0.0210  0.0319  0.0033  0.0310  0.0006  0.0443  0.0096 </r>
       </set>
       <set comment="band 20">
        <r>  0.0426  0.0044  0.0034  0.0071  0.0026  0.0682  0.0277  0.0234  0.0027 </r>
        <r>  0.0426  0.0044  0.0034  0.0071  0.0026  0.0682  0.0277  0.0234  0.0027 </r>
       </set>
       <set comment="band 21">
        <r>  0.0155  0.0117  0.0225  0.0202  0.0022  0.0164  0.0133  0.0470  0.0064 </r>
        <r>  0.0155  0.0117  0.0225  0.0202  0.0022  0.0164  0.0133  0.0470  0.0064 </r>
       </set>
       <set comment="band 22">
        <r>  0.0338  0.0113  0.0414  0.0080  0.0005  0.0416  0.0364  0.0303  0.0016 </r>
        <r>  0.0338  0.0113  0.0414  0.0080  0.0005  0.0416  0.0364  0.0303  0.0016 </r>
       </set>
       <set comment="band 23">
        <r>  0.0018  0.0128  0.0000  0.0384  0.0253  0.0012  0.0139  0.0008  0.0570 </r>
        <r>  0.0018  0.0128  0.0000  0.0384  0.0253  0.0012  0.0139  0.0008  0.0570 </r>
       </set>
       <set comment="band 24">
        <r>  0.0198  0.0152  0.0012  0.0336  0.0299  0.0068  0.0190  0.0025  0.0446 </r>
        <r>  0.0198  0.0152  0.0012  0.0336  0.0299  0.0068  0.0190  0.0025  0.0446 </r>
       </set>
       <set comment="band 25">
        <r>  0.0018  0.0052  0.0440  0.0150  0.0252  0.0361  0.0467  0.0126  0.0236 </r>
        <r>  0.0018  0.0052  0.0440  0.0150  0.0252  0.0361  0.0467  0.0126  0.0236 </r>
       </set>
       <set comment="band 26">
        <r>  0.0265  0.0080  0.0019  0.0155  0.0330  0.0133  0.0191  0.0387  0.0291 </r>
        <r>  0.0265  0.0080  0.0019  0.0155  0.0330  0.0133  0.0191  0.0387  0.0291 </r>
       </set>
       <set comment="band 27">
        <r>  0.0457  0.0085  0.0022  0.0032  0.0122  0.0105  0.0006  0.0313  0.0057 </r>
        <r>  0.0457  0.0085  0.0022  0.0032  0.0122  0.0105  0.0006  0.0313  0.0057 </r>
       </set>
       <set comment="band 28">
        <r>  0.0017  0.0021  0.0078  0.0058  0.0004  0.0130  0.0494  0.0196  0.0012 </r>
        <r>  0.0017  0.0021  0.0078  0.0058  0.0004  0.0130  0.0494  0.0196  0.0012 </r>
       </set>
       <set comment="band 29">
        <r>  0.0016  0.0014  0.0605  0.0015  0.0048  0.0104  0.0258  0.0042  0.0114 </r>
        <r>  0.0016  0.0014  0.0605  0.0015  0.0048  0.0104  0.0258  0.0042  0.0114 </r>
       </set>
       <set comment="band 30">
        <r>  0.0154  0.0381  0.0149  0.0164  0.0404  0.0170  0.0047  0.0104  0.0135 </r>
        <r>  0.0154  0.0381  0.0149  0.0164  0.0404  0.0170  0.0047  0.0104  0.0135 </r>
       </set>
       <set comment="band 31">
        <r>  0.0163  0.0190  0.0018  0.0115  0.0097  0.0082  0.0064  0.0036  0.0038 </r>
        <r>  0.0163  0.0190  0.0018  0.0115  0.0097  0.0082  0.0064  0.0036  0.0038 </r>
       </set>
       <set comment="band 32">
        <r>  0.0009  0.0216  0.0329  0.0412  0.0381  0.0149  0.0009  0.0426  0.0473 </r>
        <r>  0.0009  0.0216  0.0329  0.0412  0.0381  0.0149  0.0009  0.0426  0.0473 </r>
       </set>
       <set comment="band 33">
        <r>  0.0136  0.0213  0.0464  0.0235  0.0466  0.0181  0.0005  0.0186  0.0257 </r>
        <r>  0.0136  0.0213  0.0464  0.0235  0.0466  0.0181  0.0005  0.0186  0.0257 </r>
       </set>
       <set comment="band 34">
        <r>  0.0031  0.0017  0.0042  0.0052  0.0037  0.0081  0.0589  0.0179  0.0047 </r>
        <r>  0.0031  0.0017  0.0042  0.0052  0.0037  0.0081  0.0589  0.0179  0.0047 </r>
       </set>
       <set comment="band 35">
        <r>  0.0015  0.0048  0.0001  0.0127  0.0082  0.0289  0.0188  0.0421  0.0227 </r>
        <r>  0.0015  0.0048  0.0001  0.0127  0.0082  0.0289  0.0188  0.0421  0.0227 </r>
       </set>
       <set comment="band 36">
        <r>  0.0001  0.0138  0.0003  0.0047  0.0239  0.0756  0.0007  0.0354  0.0125 </r>
        <r>  0.0001  0.0138  0.0003  0.0047  0.0239  0.0756  0.0007  0.0354  0.0125 </r>
       </set>
       <set comment="band 37">
        <r>  0.0032  0.0520  0.0261  0.0179  0.0586  0.0392  0.0002  0.0161  0.0196 </r>
        <r>  0.0032  0.0520  0.0261  0.0179  0.0586  0.0392  0.0002  0.0161  0.0196 </r>
       </set>
       <set comment="band 38">
        <r>  0.0251  0.0047  0.0031  0.0028  0.0236  0.0281  0.0985  0.0811  0.0082 </r>
        <r>  0.0251  0.0047  0.0031  0.0028  0.0236  0.0281  0.0985  0.0811  0.0082 </r>
       </set>
       <set comment="band 39">
        <r>  0.0399  0.0008  0.0250  0.0009  0.0093  0.0447  0.1435  0.0866  0.0031 </r>
        <r>  0.0399  0.0008  0.0250  0.0009  0.0093  0.0447  0.1435  0.0866  0.0031 </r>
       </set>
       <set comment="band 40">
        <r>  0.0003  0.0114  0.0179  0.0274  0.0207  0.0082  0.0091  0.0176  0.0609 </r>
        <r>  0.0003  0.0114  0.0179  0.0274  0.0207  0.0082  0.0091  0.0176  0.0609 </r>
       </set>
       <set comment="band 41">
        <r>  0.0000  0.0125  0.0065  0.0252  0.0276  0.0129  0.0267  0.0059  0.0600 </r>
        <r>  0.0000  0.0125  0.0065  0.0252  0.0276  0.0129  0.0267  0.0059  0.0600 </r>
       </set>
       <set comment="band 42">
        <r>  0.0155  0.0339  0.0345  0.0113  0.0225  0.0623  0.0507  0.0232  0.0075 </r>
        <r>  0.0155  0.0339  0.0345  0.0113  0.0225  0.0623  0.0507  0.0232  0.0075 </r>
       </set>
       <set comment="band 43">
        <r>  0.0137  0.0339  0.0304  0.0117  0.0577  0.0114  0.0244  0.0181  0.0204 </r>
        <r>  0.0137  0.0339  0.0304  0.0117  0.0577  0.0114  0.0244  0.0181  0.0204 </r>
       </set>
       <set comment="band 44">
        <r>  0.0086  0.0724  0.0001  0.0245  0.0246  0.0328  0.0284  0.0179  0.0082 </r>
        <r>  0.0086  0.0724  0.0001  0.0245  0.0246  0.0328  0.0284  0.0179  0.0082 </r>
       </set>
       <set comment="band 45">
        <r>  0.0008  0.0293  0.0268  0.0234  0.0061  0.0015  0.0002  0.0032  0.0106 </r>
        <r>  0.0008  0.0293  0.0268  0.0234  0.0061  0.0015  0.0002  0.0032  0.0106 </r>
       </set>
       <set comment="band 46">
        <r>  0.0005  0.0145  0.0230  0.0254  0.0087  0.0214  0.0003  0.0638  0.0208 </r>
        <r>  0.0005  0.0145  0.0230  0.0254  0.0087  0.0214  0.0003  0.0638  0.0208 </r>
       </set>
       <set comment="band 47">
        <r>  0.0006  0.0649  0.0003  0.1297  0.0027  0.0030  0.0023  0.0039  0.0020 </r>
        <r>  0.0006  0.0649  0.0003  0.1297  0.0027  0.0030  0.0023  0.0039  0.0020 </r>
       </set>
       <set comment="band 48">
        <r>  0.0006  0.0651  0.0200  0.1934  0.0016  0.0049  0.0032  0.0024  0.0027 </r>
        <r>  0.0006  0.0651  0.0200  0.1934  0.0016  0.0049  0.0032  0.0024  0.0027 </r>
       </set>
       <set comment="band 49">
        <r>  0.0025  0.0425  0.0027  0.0698  0.0034  0.0174  0.0281  0.0132  0.0023 </r>
        <r>  0.0025  0.0425  0.0027  0.0698  0.0034  0.0174  0.0281  0.0132  0.0023 </r>
       </set>
       <set comment="band 50">
        <r>  0.0050  0.3309  0.0441  0.1756  0.0265  0.0067  0.0006  0.0026  0.0090 </r>
        <r>  0.0050  0.3309  0.0441  0.1756  0.0265  0.0067  0.0006  0.0026  0.0090 </r>
       </set>
       <set comment="band 51">
        <r>  0.0092  0.0198  0.0400  0.0537  0.1200  0.0018  0.0487  0.0039  0.0400 </r>
        <r>  0.0092  0.0198  0.0400  0.0537  0.1200  0.0018  0.0487  0.0039  0.0400 </r>
       </set>
       <set comment="band 52">
        <r>  0.0001  0.3177  0.0559  0.1064  0.0208  0.0007  0.0061  0.0006  0.0175 </r>
        <r>  0.0001  0.3177  0.0559  0.1064  0.0208  0.0007  0.0061  0.0006  0.0175 </r>
       </set>
       <set comment="band 53">
        <r>  0.0147  0.2580  0.6200  0.1223  0.0050  0.0139  0.0314  0.0062  0.0032 </r>
        <r>  0.0147  0.2580  0.6200  0.1223  0.0050  0.0139  0.0314  0.0062  0.0032 </r>
       </set>
       <set comment="band 54">
        <r>  0.0003  0.0445  0.7369  0.0207  0.0123  0.0067  0.0259  0.0026  0.0368 </r>
        <r>  0.0003  0.0445  0.7369  0.0207  0.0123  0.0067  0.0259  0.0026  0.0368 </r>
       </set>
       <set comment="band 55">
        <r>  0.0000  0.4445  0.1149  0.4160  0.0167  0.0005  0.0000  0.0009  0.0317 </r>
        <r>  0.0000  0.4445  0.1149  0.4160  0.0167  0.0005  0.0000  0.0009  0.0317 </r>
       </set>
       <set comment="band 56">
        <r>  0.0003  0.2632  0.1433  0.4798  0.0099  0.0021  0.0044  0.0008  0.0048 </r>
        <r>  0.0003  0.2632  0.1433  0.4798  0.0099  0.0021  0.0044  0.0008  0.0048 </r>
       </set>
       <set comment="band 57">
        <r>  0.0030  0.1193  0.0947  0.1230  0.0139  0.0533  0.0052  0.0178  0.0173 </r>
        <r>  0.0030  0.1193  0.0947  0.1230  0.0139  0.0533  0.0052  0.0178  0.0173 </r>
       </set>
       <set comment="band 58">
        <r>  0.0084  0.0079  0.1605  0.0042  0.0280  0.0150  0.0321  0.0050  0.0237 </r>
        <r>  0.0084  0.0079  0.1605  0.0042  0.0280  0.0150  0.0321  0.0050  0.0237 </r>
       </set>
       <set comment="band 59">
        <r>  0.0000  0.0507  0.1330  0.1369  0.0241  0.0126  0.0030  0.0286  0.0723 </r>
        <r>  0.0000  0.0507  0.1330  0.1369  0.0241  0.0126  0.0030  0.0286  0.0723 </r>
       </set>
       <set comment="band 60">
        <r>  0.0011  0.0772  0.0191  0.1515  0.0167  0.0412  0.0013  0.0537  0.0385 </r>
        <r>  0.0011  0.0772  0.0191  0.1515  0.0167  0.0412  0.0013  0.0537  0.0385 </r>
       </set>
       <set comment="band 61">
        <r>  0.0023  0.1059  0.0569  0.0403  0.0820  0.0005  0.0539  0.0015  0.0645 </r>
        <r>  0.0023  0.1059  0.0569  0.0403  0.0820  0.0005  0.0539  0.0015  0.0645 </r>
       </set>
       <set comment="band 62">
        <r>  0.0040  0.0365  0.0654  0.0957  0.0677  0.0045  0.0175  0.0023  0.0816 </r>
        <r>  0.0040  0.0365  0.0654  0.0957  0.0677  0.0045  0.0175  0.0023  0.0816 </r>
       </set>
       <set comment="band 63">
        <r>  0.0000  0.0877  0.3364  0.2499  0.1371  0.0101  0.0372  0.0057  0.0815 </r>
        <r>  0.0000  0.0877  0.3364  0.2499  0.1371  0.0101  0.0372  0.0057  0.0815 </r>
       </set>
       <set comment="band 64">
        <r>  0.0085  0.0402  0.5059  0.1178  0.0610  0.0032  0.0196  0.0012  0.0213 </r>
        <r>  0.0085  0.0402  0.5059  0.1178  0.0610  0.0032  0.0196  0.0012  0.0213 </r>
       </set>
       <set comment="band 65">
        <r>  0.0149  0.0436  0.0029  0.1294  0.1129  0.0524  0.0193  0.0362  0.1314 </r>
        <r>  0.0149  0.0436  0.0029  0.1294  0.1129  0.0524  0.0193  0.0362  0.1314 </r>
       </set>
       <set comment="band 66">
        <r>  0.0035  0.3015  0.0417  0.1792  0.0318  0.0587  0.0003  0.0289  0.0389 </r>
        <r>  0.0035  0.3015  0.0417  0.1792  0.0318  0.0587  0.0003  0.0289  0.0389 </r>
       </set>
       <set comment="band 67">
        <r>  0.0023  0.1973  0.1618  0.0662  0.0101  0.0076  0.0003  0.0210  0.0239 </r>
        <r>  0.0023  0.1973  0.1618  0.0662  0.0101  0.0076  0.0003  0.0210  0.0239 </r>
       </set>
       <set comment="band 68">
        <r>  0.0008  0.2034  0.0153  0.2844  0.0797  0.0069  0.0070  0.0040  0.0663 </r>
        <r>  0.0008  0.2034  0.0153  0.2844  0.0797  0.0069  0.0070  0.0040  0.0663 </r>
       </set>
       <set comment="band 69">
        <r>  0.0084  0.0000  0.0005  0.0000  0.0261  0.0454  0.0106  0.1002  0.0663 </r>
        <r>  0.0084  0.0000  0.0005  0.0000  0.0261  0.0454  0.0106  0.1002  0.0663 </r>
       </set>
       <set comment="band 70">
        <r>  0.1016  0.2460  0.0002  0.1211  0.0444  0.0019  0.1535  0.0028  0.0149 </r>
        <r>  0.1016  0.2460  0.0002  0.1211  0.0444  0.0019  0.1535  0.0028  0.0149 </r>
       </set>
       <set comment="band 71">
        <r>  0.1784  0.0257  0.1274  0.0250  0.0084  0.0425  0.0636  0.0150  0.0040 </r>
        <r>  0.1784  0.0257  0.1274  0.0250  0.0084  0.0425  0.0636  0.0150  0.0040 </r>
       </set>
       <set comment="band 72">
        <r>  0.0692  0.0446  0.0051  0.0625  0.0482  0.0534  0.1535  0.0229  0.0287 </r>
        <r>  0.0692  0.0446  0.0051  0.0625  0.0482  0.0534  0.1535  0.0229  0.0287 </r>
       </set>
       <set comment="band 73">
        <r>  0.1040  0.0718  0.0467  0.0287  0.0096  0.0674  0.1526  0.0228  0.0174 </r>
        <r>  0.1040  0.0718  0.0467  0.0287  0.0096  0.0674  0.1526  0.0228  0.0174 </r>
       </set>
       <set comment="band 74">
        <r>  0.1268  0.0250  0.2362  0.0677  0.1264  0.0128  0.0465  0.0320  0.0451 </r>
        <r>  0.1268  0.0250  0.2362  0.0677  0.1264  0.0128  0.0465  0.0320  0.0451 </r>
       </set>
       <set comment="band 75">
        <r>  0.0065  0.0177  0.0926  0.0531  0.0014  0.0633  0.0090  0.1120  0.0028 </r>
        <r>  0.0065  0.0177  0.0926  0.0531  0.0014  0.0633  0.0090  0.1120  0.0028 </r>
       </set>
       <set comment="band 76">
        <r>  0.1434  0.0268  0.1041  0.0465  0.0203  0.0914  0.0391  0.0932  0.0087 </r>
        <r>  0.1434  0.0268  0.1041  0.0465  0.0203  0.0914  0.0391  0.0932  0.0087 </r>
       </set>
       <set comment="band 77">
        <r>  0.0739  0.1166  0.1859  0.0615  0.0146  0.0039  0.1083  0.0025  0.0437 </r>
        <r>  0.0739  0.1166  0.1859  0.0615  0.0146  0.0039  0.1083  0.0025  0.0437 </r>
       </set>
       <set comment="band 78">
        <r>  0.2185  0.0623  0.0070  0.0768  0.0696  0.0207  0.0647  0.0266  0.0237 </r>
        <r>  0.2185  0.0623  0.0070  0.0768  0.0696  0.0207  0.0647  0.0266  0.0237 </r>
       </set>
       <set comment="band 79">
        <r>  0.0396  0.1878  0.0031  0.2018  0.0088  0.0089  0.0074  0.0223  0.0110 </r>
        <r>  0.0396  0.1878  0.0031  0.2018  0.0088  0.0089  0.0074  0.0223  0.0110 </r>
       </set>
       <set comment="band 80">
        <r>  0.1659  0.0837  0.1134  0.0745  0.0426  0.0765  0.0311  0.0338  0.0744 </r>
        <r>  0.1659  0.0837  0.1134  0.0745  0.0426  0.0765  0.0311  0.0338  0.0744 </r>
       </set>
       <set comment="band 81">
        <r>  0.0082  0.0427  0.0059  0.1247  0.0122  0.0530  0.0208  0.0886  0.0142 </r>
        <r>  0.0082  0.0427  0.0059  0.1247  0.0122  0.0530  0.0208  0.0886  0.0142 </r>
       </set>
       <set comment="band 82">
        <r>  0.0580  0.0850  0.1135  0.0954  0.0168  0.0026  0.0243  0.0034  0.0157 </r>
        <r>  0.0580  0.0850  0.1135  0.0954  0.0168  0.0026  0.0243  0.0034  0.0157 </r>
       </set>
       <set comment="band 83">
        <r>  0.4891  0.0691  0.0000  0.0781  0.0364  0.0544  0.0165  0.1269  0.0153 </r>
        <r>  0.4891  0.0691  0.0000  0.0781  0.0364  0.0544  0.0165  0.1269  0.0153 </r>
       </set>
       <set comment="band 84">
        <r>  0.3459  0.1099  0.0803  0.0389  0.0128  0.0711  0.0002  0.0458  0.0059 </r>
        <r>  0.3459  0.1099  0.0803  0.0389  0.0128  0.0711  0.0002  0.0458  0.0059 </r>
       </set>
       <set comment="band 85">
        <r>  0.7646  0.0525  0.0229  0.0388  0.0294  0.0252  0.0140  0.0310  0.0216 </r>
        <r>  0.7646  0.0525  0.0229  0.0388  0.0294  0.0252  0.0140  0.0310  0.0216 </r>
       </set>
       <set comment="band 86">
        <r>  0.5085  0.0725  0.0055  0.0366  0.0358  0.0744  0.0008  0.0255  0.0322 </r>
        <r>  0.5085  0.0725  0.0055  0.0366  0.0358  0.0744  0.0008  0.0255  0.0322 </r>
       </set>
       <set comment="band 87">
        <r>  1.0620  0.0145  0.0339  0.0056  0.0107  0.0222  0.0421  0.0075  0.0038 </r>
        <r>  1.0620  0.0145  0.0339  0.0056  0.0107  0.0222  0.0421  0.0075  0.0038 </r>
       </set>
       <set comment="band 88">
        <r>  0.0899  0.0057  0.0446  0.0165  0.0094  0.1530  0.0151  0.0523  0.0219 </r>
        <r>  0.0899  0.0057  0.0446  0.0165  0.0094  0.1530  0.0151  0.0523  0.0219 </r>
       </set>
       <set comment="band 89">
        <r>  0.0070  0.0539  0.0278  0.0235  0.0095  0.0411  0.0152  0.0634  0.0032 </r>
        <r>  0.0070  0.0539  0.0278  0.0235  0.0095  0.0411  0.0152  0.0634  0.0032 </r>
       </set>
       <set comment="band 90">
        <r>  0.3363  0.0295  0.0222  0.0463  0.0124  0.0668  0.0003  0.1029  0.0367 </r>
        <r>  0.3363  0.0295  0.0222  0.0463  0.0124  0.0668  0.0003  0.1029  0.0367 </r>
       </set>
       <set comment="band 91">
        <r>  0.2130  0.0513  0.0000  0.0454  0.0336  0.0266  0.0002  0.0623  0.0458 </r>
        <r>  0.2130  0.0513  0.0000  0.0454  0.0336  0.0266  0.0002  0.0623  0.0458 </r>
       </set>
       <set comment="band 92">
        <r>  0.0000  0.0527  0.0436  0.0186  0.0410  0.0089  0.0107  0.0079  0.0139 </r>
        <r>  0.0000  0.0527  0.0436  0.0186  0.0410  0.0089  0.0107  0.0079  0.0139 </r>
       </set>
       <set comment="band 93">
        <r>  0.7284  0.0473  0.0002  0.0198  0.0164  0.0920  0.0035  0.0637  0.0143 </r>
        <r>  0.7284  0.0473  0.0002  0.0198  0.0164  0.0920  0.0035  0.0637  0.0143 </r>
       </set>
       <set comment="band 94">
        <r>  0.1345  0.0119  0.0278  0.0158  0.0303  0.0480  0.0013  0.0306  0.0253 </r>
        <r>  0.1344  0.0119  0.0278  0.0158  0.0303  0.0480  0.0013  0.0306  0.0253 </r>
       </set>
       <set comment="band 95">
        <r>  0.0905  0.0173  0.0213  0.0059  0.0036  0.0197  0.0447  0.0373  0.0028 </r>
        <r>  0.0905  0.0173  0.0213  0.0059  0.0036  0.0197  0.0447  0.0373  0.0028 </r>
       </set>
       <set comment="band 96">
        <r>  0.0302  0.0350  0.0003  0.0209  0.0138  0.0256  0.0277  0.0268  0.0271 </r>
        <r>  0.0302  0.0350  0.0003  0.0209  0.0138  0.0256  0.0276  0.0268  0.0271 </r>
       </set>
      </set>
     </set>
    </set>
   </array>
  </projected>
 </calculation>
 <structure name="finalpos" >
  <crystal>
   <varray name="basis" >
    <v>       2.94131208       0.00000000       0.00000000 </v>
    <v>      -1.47065604       2.54725098       0.00000000 </v>
    <v>      -0.00000000       0.00000000       5.62145063 </v>
   </varray>
   <i name="volume">     42.11737008 </i>
   <varray name="rec_basis" >
    <v>       0.33998432       0.19629004      -0.00000000 </v>
    <v>      -0.00000000       0.39258008      -0.00000000 </v>
    <v>      -0.00000000      -0.00000000       0.17789003 </v>
   </varray>
  </crystal>
  <varray name="positions" >
   <v>       0.66666667       0.33333333       0.75000000 </v>
   <v>       0.33333333       0.66666667       0.25000000 </v>
  </varray>
 </structure>
</modeling>
