       N       E                     dE             d eps       ncg     rms          rms(c)
DAV:   1     0.109831223254E+03    0.10983E+03   -0.27468E+04  2048   0.318E+02
DAV:   2    -0.212479158792E+02   -0.13108E+03   -0.13107E+03  3328   0.648E+01
DAV:   3    -0.217686057367E+02   -0.52069E+00   -0.52069E+00  2048   0.555E+00
DAV:   4    -0.217696143546E+02   -0.10086E-02   -0.10086E-02  4096   0.204E-01
DAV:   5    -0.217696143617E+02   -0.71805E-08   -0.73997E-08  2048   0.604E-04    0.156E+01
DAV:   6    -0.217546945025E+02    0.14920E-01   -0.44744E+00  2944   0.394E+00    0.944E+00
DAV:   7    -0.219325839070E+02   -0.17789E+00   -0.47134E-01  3072   0.987E-01    0.573E+00
DAV:   8    -0.219310065723E+02    0.15773E-02   -0.19963E-01  2944   0.470E-01    0.223E+00
DAV:   9    -0.219289937445E+02    0.20128E-02   -0.86492E-03  3072   0.196E-01    0.331E-01
DAV:  10    -0.219344161346E+02   -0.54224E-02   -0.98452E-03  2432   0.889E-02    0.128E-01
DAV:  11    -0.219346816164E+02   -0.26548E-03   -0.70320E-04  3456   0.309E-02    0.845E-02
DAV:  12    -0.219347289988E+02   -0.47382E-04   -0.36854E-05  2560   0.742E-03    0.391E-02
DAV:  13    -0.219347660233E+02   -0.37025E-04   -0.35776E-05  2304   0.657E-03    0.159E-02
DAV:  14    -0.219347748663E+02   -0.88430E-05   -0.93428E-06  3072   0.365E-03    0.422E-03
DAV:  15    -0.219347756979E+02   -0.83154E-06   -0.86645E-07  2816   0.990E-04
   1 F= -.21934776E+02 E0= -.21934189E+02  d E =-.219348E+02  mag=     0.0001
