 vasp.6.4.1 05Apr23 (build Apr 16 2023 17:31:45) complex                         
 executed on             LinuxGNU date 2024.07.03  16:52:39
 running  512 mpi-ranks, with    1 threads/rank, on    4 nodes
 distrk:  each k-point on  512 cores,    1 groups
 distr:  one band on NCORE=   4 cores,  128 groups


--------------------------------------------------------------------------------------------------------


 INCAR:
   ALGO = Normal
   EDIFF = 0.1E-05
   EDIFFG = -0.05
   ENCUT = 300
   GGA = PS
   IBRION = 2
   ISIF = 3
   ISMEAR = 0
   ISPIN = 2
   LASPH = True
   LCHARG = False
   LHFCALC = False
   LMAXMIX = 4
   LORBIT = 11
   LREAL = Auto
   LVHAR = True
   LWAVE = False
   NCORE = 4
   NEDOS = 2000
   NELM = 40
   NSW = 300
   PREC = Accurate

 POTCAR:    PAW_PBE Cd 06Sep2000                  
 POTCAR:    PAW_PBE Te 08Apr2002                  
 -----------------------------------------------------------------------------
|                                                                             |
|           W    W    AA    RRRRR   N    N  II  N    N   GGGG   !!!           |
|           W    W   A  A   R    R  NN   N  II  NN   N  G    G  !!!           |
|           W    W  A    A  R    R  N N  N  II  N N  N  G       !!!           |
|           W WW W  AAAAAA  RRRRR   N  N N  II  N  N N  G  GGG   !            |
|           WW  WW  A    A  R   R   N   NN  II  N   NN  G    G                |
|           W    W  A    A  R    R  N    N  II  N    N   GGGG   !!!           |
|                                                                             |
|     You use a magnetic or noncollinear calculation, but did not specify     |
|     the initial magnetic moment with the MAGMOM tag. Note that a            |
|     default of 1 will be used for all atoms. This ferromagnetic setup       |
|     may break the symmetry of the crystal, in particular it may rule        |
|     out finding an antiferromagnetic solution. Thence, we recommend         |
|     setting the initial magnetic moment manually or verifying carefully     |
|     that this magnetic setup is desired.                                    |
|                                                                             |
 -----------------------------------------------------------------------------

 POTCAR:    PAW_PBE Cd 06Sep2000                  
   VRHFIN =Cd : s2 d10                                                                              
   LEXCH  = PE                                                                                      
   EATOM  =  1293.1815 eV,   95.0462 Ry                                                             
                                                                                                    
   TITEL  = PAW_PBE Cd 06Sep2000                                                                    
   LULTRA =        F    use ultrasoft PP ?                                                          
   IUNSCR =        1    unscreen: 0-lin 1-nonlin 2-no                                               
   RPACOR =    2.000    partial core radius                                                         
   POMASS =  112.411; ZVAL   =   12.000    mass and valenz                                          
   RCORE  =    2.300    outmost cutoff radius                                                       
   RWIGS  =    2.980; RWIGS  =    1.577    wigner-seitz radius (au A)                               
   ENMAX  =  274.336; ENMIN  =  205.752 eV                                                          
   RCLOC  =    2.054    cutoff for local pot                                                        
   LCOR   =        T    correct aug charges                                                         
   LPAW   =        T    paw PP                                                                      
   EAUG   =  456.106                                                                                
   DEXC   =    0.000                                                                                
   RMAX   =    2.358    core radius for proj-oper                                                   
   RAUG   =    1.300    factor for augmentation sphere                                              
   RDEP   =    2.450    radius for radial grids                                                     
   RDEPT  =    1.955    core radius for aug-charge                                                  
                                                                                                    
   Atomic configuration                                                                             
   12 entries                                                                                       
     n  l   j            E        occ.                                                              
     1  0  0.50    -26519.7817   2.0000                                                             
     2  0  0.50     -3936.9612   2.0000                                                             
     2  1  1.50     -3532.2230   6.0000                                                             
     3  0  0.50      -733.7908   2.0000                                                             
     3  1  1.50      -601.0792   6.0000                                                             
     3  2  2.50      -393.5307  10.0000                                                             
     4  0  0.50      -105.8977   2.0000                                                             
     4  1  1.50       -66.9488   6.0000                                                             
     4  2  2.50       -11.7331  10.0000                                                             
     5  0  0.50        -5.6592   2.0000                                                             
     5  1  0.50        -1.3606   0.0000                                                             
     4  3  2.50        -1.3606   0.0000                                                             
   Description                                                                                      
     l       E           TYP  RCUT    TYP  RCUT                                                     
     2    -11.7331479     23  2.300                                                                 
     2    -13.0937305     23  2.300                                                                 
     0     -5.6591502     23  2.300                                                                 
     0     -1.5561433     23  2.300                                                                 
     1     -2.7211652     23  2.300                                                                 
     1      8.3548275     23  2.300                                                                 
  local pseudopotential read in
  partial core-charges read in
  partial kinetic energy density read in
  atomic valenz-charges read in
  non local Contribution for L=           2  read in
    real space projection operators read in
  non local Contribution for L=           2  read in
    real space projection operators read in
  non local Contribution for L=           0  read in
    real space projection operators read in
  non local Contribution for L=           0  read in
    real space projection operators read in
  non local Contribution for L=           1  read in
    real space projection operators read in
  non local Contribution for L=           1  read in
    real space projection operators read in
    PAW grid and wavefunctions read in

   number of l-projection  operators is LMAX  =           6
   number of lm-projection operators is LMMAX =          18

 POTCAR:    PAW_PBE Te 08Apr2002                  
   VRHFIN =Te: s2p4                                                                                 
   LEXCH  = PE                                                                                      
   EATOM  =   223.2721 eV,   16.4100 Ry                                                             
                                                                                                    
   TITEL  = PAW_PBE Te 08Apr2002                                                                    
   LULTRA =        F    use ultrasoft PP ?                                                          
   IUNSCR =        1    unscreen: 0-lin 1-nonlin 2-no                                               
   RPACOR =    2.200    partial core radius                                                         
   POMASS =  127.600; ZVAL   =    6.000    mass and valenz                                          
   RCORE  =    2.300    outmost cutoff radius                                                       
   RWIGS  =    2.900; RWIGS  =    1.535    wigner-seitz radius (au A)                               
   ENMAX  =  174.982; ENMIN  =  131.236 eV                                                          
   ICORE  =        3    local potential                                                             
   LCOR   =        T    correct aug charges                                                         
   LPAW   =        T    paw PP                                                                      
   EAUG   =  368.792                                                                                
   DEXC   =    0.000                                                                                
   RMAX   =    2.345    core radius for proj-oper                                                   
   RAUG   =    1.300    factor for augmentation sphere                                              
   RDEP   =    2.397    radius for radial grids                                                     
   RDEPT  =    2.174    core radius for aug-charge                                                  
                                                                                                    
   Atomic configuration                                                                             
   13 entries                                                                                       
     n  l   j            E        occ.                                                              
     1  0  0.50    -31621.2075   2.0000                                                             
     2  0  0.50     -4848.7941   2.0000                                                             
     2  1  1.50     -4352.1960   6.0000                                                             
     3  0  0.50      -964.9612   2.0000                                                             
     3  1  1.50      -803.6179   6.0000                                                             
     3  2  2.50      -559.8710  10.0000                                                             
     4  0  0.50      -164.3522   2.0000                                                             
     4  1  1.50      -114.3756   6.0000                                                             
     4  2  2.50       -41.6483  10.0000                                                             
     5  0  0.50       -15.1072   2.0000                                                             
     5  1  0.50        -5.9526   4.0000                                                             
     5  2  1.50        -5.4423   0.0000                                                             
     4  3  2.50        -5.4423   0.0000                                                             
   Description                                                                                      
     l       E           TYP  RCUT    TYP  RCUT                                                     
     0    -15.1072389     23  2.300                                                                 
     0    -16.4678215     23  2.300                                                                 
     1     -5.9526306     23  2.300                                                                 
     1     -2.4873968     23  2.300                                                                 
     2     -5.4423304     23  2.300                                                                 
     3     -1.3605826     23  2.300                                                                 
  local pseudopotential read in
  partial core-charges read in
  partial kinetic energy density read in
  atomic valenz-charges read in
  non local Contribution for L=           0  read in
    real space projection operators read in
  non local Contribution for L=           0  read in
    real space projection operators read in
  non local Contribution for L=           1  read in
    real space projection operators read in
  non local Contribution for L=           1  read in
    real space projection operators read in
  non local Contribution for L=           2  read in
    real space projection operators read in
    PAW grid and wavefunctions read in

   number of l-projection  operators is LMAX  =           5
   number of lm-projection operators is LMMAX =          13

 -----------------------------------------------------------------------------
|                                                                             |
|               ----> ADVICE to this user running VASP <----                  |
|                                                                             |
|     You have a (more or less) 'small supercell' and for smaller cells       |
|     it is recommended to use the reciprocal-space projection scheme!        |
|     The real-space optimization is not efficient for small cells and it     |
|     is also less accurate ...                                               |
|     Therefore, set LREAL=.FALSE. in the INCAR file.                         |
|                                                                             |
 -----------------------------------------------------------------------------

 Optimization of the real space projectors (new method)

 maximal supplied QI-value         = 16.25
 optimisation between [QCUT,QGAM] = [  8.78, 17.71] = [ 21.57, 87.87] Ry 
 Optimized for a Real-space Cutoff    1.55 Angstroem

   l    n(q)    QCUT    max X(q) W(low)/X(q) W(high)/X(q)  e(spline) 
   2      7     8.776    73.106    0.20E-03    0.51E-03    0.27E-06
   2      7     8.776    71.731    0.20E-03    0.52E-03    0.27E-06
   0      8     8.776   146.509    0.20E-03    0.21E-03    0.73E-07
   0      8     8.776    95.017    0.20E-03    0.21E-03    0.71E-07
   1      8     8.776    36.165    0.16E-03    0.23E-03    0.87E-07
   1      8     8.776    31.530    0.16E-03    0.21E-03    0.79E-07
 Optimization of the real space projectors (new method)

 maximal supplied QI-value         = 16.25
 optimisation between [QCUT,QGAM] = [  8.78, 17.71] = [ 21.57, 87.87] Ry 
 Optimized for a Real-space Cutoff    1.64 Angstroem

   l    n(q)    QCUT    max X(q) W(low)/X(q) W(high)/X(q)  e(spline) 
   0      9     8.776   224.858    0.99E-04    0.46E-04    0.12E-06
   0      9     8.776   205.313    0.10E-03    0.46E-04    0.12E-06
   1      8     8.776   119.695    0.16E-03    0.24E-03    0.15E-06
   1      8     8.776    84.282    0.16E-03    0.23E-03    0.15E-06
   2      8     8.776     5.599    0.49E-04    0.35E-04    0.42E-07
 -----------------------------------------------------------------------------
|                                                                             |
|               ----> ADVICE to this user running VASP <----                  |
|                                                                             |
|     You enforced a specific xc type in the INCAR file but a different       |
|     type was found in the POTCAR file.                                      |
|     I HOPE YOU KNOW WHAT YOU ARE DOING!                                     |
|                                                                             |
 -----------------------------------------------------------------------------

  PAW_PBE Cd 06Sep2000                  :
 energy of atom  1       EATOM=-1293.1815
 kinetic energy error for atom=    0.0640 (will be added to EATOM!!)
  PAW_PBE Te 08Apr2002                  :
 energy of atom  2       EATOM= -223.2721
 kinetic energy error for atom=    0.0026 (will be added to EATOM!!)


 POSCAR: Cd4 Te4
  positions in direct lattice
  velocities in cartesian coordinates
 exchange correlation table for  LEXCH =       14
   RHO(1)=    0.500       N(1)  =     2000
   RHO(2)=  100.500       N(2)  =     4000



--------------------------------------------------------------------------------------------------------


 ion  position               nearest neighbor table
   1  0.000  0.000  0.000-   6 2.81   7 2.81   8 2.81   5 2.81
   2  0.000  0.500  0.500-   5 2.81   7 2.81   8 2.81   6 2.81
   3  0.500  0.000  0.500-   5 2.81   6 2.81   8 2.81   7 2.81
   4  0.500  0.500  0.000-   5 2.81   6 2.81   7 2.81   8 2.81
   5  0.250  0.250  0.250-   2 2.81   3 2.81   4 2.81   1 2.81
   6  0.250  0.750  0.750-   1 2.81   3 2.81   4 2.81   2 2.81
   7  0.750  0.250  0.750-   1 2.81   2 2.81   4 2.81   3 2.81
   8  0.750  0.750  0.250-   1 2.81   2 2.81   3 2.81   4 2.81

  LATTYP: Found a simple cubic cell.
 ALAT       =     6.4974804700
  
  Lattice vectors:
  
 A1 = (   6.4974804700,  -0.0000000000,   0.0000000000)
 A2 = (   0.0000000000,   6.4974804700,   0.0000000000)
 A3 = (  -0.0000000000,  -0.0000000000,   6.4974804700)


Analysis of symmetry for initial positions (statically):
=====================================================================
 Subroutine PRICEL returns following result:
 
  LATTYP: Found a face centered cubic cell.
 ALAT       =     6.4974804700
  
  Lattice vectors:
  
 A1 = (   3.2487402350,  -3.2487402350,   0.0000000000)
 A2 = (   3.2487402350,   0.0000000000,   3.2487402350)
 A3 = (   0.0000000000,  -3.2487402350,   3.2487402350)
 
   4 primitive cells build up your supercell.
 

 Routine SETGRP: Setting up the symmetry group for a 
 simple cubic supercell.


 Subroutine GETGRP returns: Found 24 space group operations
 (whereof 24 operations were pure point group operations)
 out of a pool of 48 trial point group operations.


The static configuration has the point symmetry T_d .


Analysis of symmetry for dynamics (positions and initial velocities):
=====================================================================
 Subroutine PRICEL returns following result:
 
  LATTYP: Found a face centered cubic cell.
 ALAT       =     6.4974804700
  
  Lattice vectors:
  
 A1 = (   3.2487402350,  -3.2487402350,   0.0000000000)
 A2 = (   3.2487402350,   0.0000000000,   3.2487402350)
 A3 = (   0.0000000000,  -3.2487402350,   3.2487402350)
 
   4 primitive cells build up your supercell.
 

 Routine SETGRP: Setting up the symmetry group for a 
 simple cubic supercell.


 Subroutine GETGRP returns: Found 24 space group operations
 (whereof 24 operations were pure point group operations)
 out of a pool of 48 trial point group operations.


The dynamic configuration has the point symmetry T_d .


Analysis of structural, dynamic, and magnetic symmetry:
=====================================================================
 Subroutine PRICEL returns following result:
 
  LATTYP: Found a face centered cubic cell.
 ALAT       =     6.4974804700
  
  Lattice vectors:
  
 A1 = (   3.2487402350,  -3.2487402350,   0.0000000000)
 A2 = (   3.2487402350,   0.0000000000,   3.2487402350)
 A3 = (   0.0000000000,  -3.2487402350,   3.2487402350)
 
   4 primitive cells build up your supercell.
 

 Routine SETGRP: Setting up the symmetry group for a 
 simple cubic supercell.


 Subroutine GETGRP returns: Found 24 space group operations
 (whereof 24 operations were pure point group operations)
 out of a pool of 48 trial point group operations.


The overall configuration has the point symmetry T_d .


 Subroutine INISYM returns: Found 24 space group operations
 (whereof 24 operations are pure point group operations),
 and found     4 'primitive' translations


----------------------------------------------------------------------------------------

                                     Primitive cell                                     

  volume of cell :      68.5764

  direct lattice vectors                    reciprocal lattice vectors
     3.248740235 -3.248740235  0.000000000     0.153905811 -0.153905811 -0.153905811
     3.248740235  0.000000000  3.248740235     0.153905811  0.153905811  0.153905811
     0.000000000 -3.248740235  3.248740235    -0.153905811 -0.153905811  0.153905811

  length of vectors
     4.594412501  4.594412501  4.594412501     0.266572684  0.266572684  0.266572684

  position of ions in fractional coordinates (direct lattice)
     0.000000000  0.000000000  0.000000000
     0.750000000  0.750000000  0.750000000

  ion indices of the primitive-cell ions
   primitive index   ion index
                 1           1
                 2           5

----------------------------------------------------------------------------------------



 KPOINTS: K-Spacing Value to Generate K-Mesh: 0.03

Automatic generation of k-mesh.
 Grid dimensions read from file:
 generate k-points for:    3    3    3

 Generating k-lattice:

  Cartesian coordinates                     Fractional coordinates (reciprocal lattice)
     0.051301937 -0.000000000  0.000000000     0.333333333  0.000000000  0.000000000
     0.000000000  0.051301937  0.000000000     0.000000000  0.333333333  0.000000000
    -0.000000000 -0.000000000  0.051301937    -0.000000000 -0.000000000  0.333333333

  Length of vectors
     0.051301937  0.051301937  0.051301937

  Shift w.r.t. Gamma in fractional coordinates (k-lattice)
     0.000000000  0.000000000  0.000000000

 
 Subroutine IBZKPT returns following result:
 ===========================================
 
 Found      4 irreducible k-points:
 
 Following reciprocal coordinates:
            Coordinates               Weight
  0.000000  0.000000  0.000000      1.000000
  0.333333  0.000000  0.000000      6.000000
  0.333333  0.333333  0.000000     12.000000
  0.333333  0.333333  0.333333      8.000000
 
 Following cartesian coordinates:
            Coordinates               Weight
  0.000000  0.000000  0.000000      1.000000
  0.051302  0.000000  0.000000      6.000000
  0.051302  0.051302  0.000000     12.000000
  0.051302  0.051302  0.051302      8.000000
 


--------------------------------------------------------------------------------------------------------




 Dimension of arrays:
   k-points           NKPTS =      4   k-points in BZ     NKDIM =      4   number of bands    NBANDS=    128
   number of dos      NEDOS =   2000   number of ions     NIONS =      8
   non local maximal  LDIM  =      6   non local SUM 2l+1 LMDIM =     18
   total plane-waves  NPLWV =  64000
   max r-space proj   IRMAX =   4376   max aug-charges    IRDMAX=  13768
   dimension x,y,z NGX =    40 NGY =   40 NGZ =   40
   dimension x,y,z NGXF=    80 NGYF=   80 NGZF=   80
   support grid    NGXF=    80 NGYF=   80 NGZF=   80
   ions per type =               4   4
   NGX,Y,Z   is equivalent  to a cutoff of  10.23, 10.23, 10.23 a.u.
   NGXF,Y,Z  is equivalent  to a cutoff of  20.47, 20.47, 20.47 a.u.

 SYSTEM =  unknown system                          
 POSCAR =  Cd4 Te4                                 

 Startparameter for this run:
   NWRITE =      2    write-flag & timer
   PREC   = accura    normal or accurate (medium, high low for compatibility)
   ISTART =      0    job   : 0-new  1-cont  2-samecut
   ICHARG =      2    charge: 1-file 2-atom 10-const
   ISPIN  =      2    spin polarized calculation?
   LNONCOLLINEAR =      F non collinear calculations
   LSORBIT =      F    spin-orbit coupling
   INIWAV =      1    electr: 0-lowe 1-rand  2-diag
   LASPH  =      T    aspherical Exc in radial PAW
 Electronic Relaxation 1
   ENCUT  =  300.0 eV  22.05 Ry    4.70 a.u.   9.18  9.18  9.18*2*pi/ulx,y,z
   ENINI  =  300.0     initial cutoff
   ENAUG  =  456.1 eV  augmentation charge cutoff
   NELM   =     40;   NELMIN=  2; NELMDL=  0     # of ELM steps 
   EDIFF  = 0.1E-05   stopping-criterion for ELM
   LREAL  =      T    real-space projection
   NLSPLINE    = F    spline interpolate recip. space projectors
   LCOMPAT=      F    compatible to vasp.4.4
   GGA_COMPAT  = T    GGA compatible to vasp.4.4-vasp.4.6
   LMAXPAW     = -100 max onsite density
   LMAXMIX     =    4 max onsite mixed and CHGCAR
   VOSKOWN=      0    Vosko Wilk Nusair interpolation
   ROPT   =   -0.00025  -0.00025
 Ionic relaxation
   EDIFFG = -.5E-01   stopping-criterion for IOM
   NSW    =    300    number of steps for IOM
   NBLOCK =      1;   KBLOCK =    300    inner block; outer block 
   IBRION =      2    ionic relax: 0-MD 1-quasi-New 2-CG
   NFREE  =      1    steps in history (QN), initial steepest desc. (CG)
   ISIF   =      3    stress and relaxation
   IWAVPR =     11    prediction:  0-non 1-charg 2-wave 3-comb
   ISYM   =      2    0-nonsym 1-usesym 2-fastsym
   LCORR  =      T    Harris-Foulkes like correction to forces

   POTIM  = 0.5000    time-step for ionic-motion
   TEIN   =    0.0    initial temperature
   TEBEG  =    0.0;   TEEND  =   0.0 temperature during run
   SMASS  =  -3.00    Nose mass-parameter (am)
   estimated Nose-frequenzy (Omega)   =  0.10E-29 period in steps = 0.13E+47 mass=  -0.965E-27a.u.
   SCALEE = 1.0000    scale energy and forces
   NPACO  =    256;   APACO  = 10.0  distance and # of slots for P.C.
   PSTRESS=    0.0 pullay stress

  Mass of Ions in am
   POMASS = 112.41127.60
  Ionic Valenz
   ZVAL   =  12.00  6.00
  Atomic Wigner-Seitz radii
   RWIGS  =  -1.00 -1.00
  virtual crystal weights 
   VCA    =   1.00  1.00
   NELECT =      72.0000    total number of electrons
   NUPDOWN=      -1.0000    fix difference up-down

 DOS related values:
   EMIN   =  10.00;   EMAX   =-10.00  energy-range for DOS
   EFERMI =   0.00;   METHOD = LEGACY      
   ISMEAR =     0;   SIGMA  =   0.20  broadening in eV -4-tet -1-fermi 0-gaus

 Electronic relaxation 2 (details)
   IALGO  =     38    algorithm
   LDIAG  =      T    sub-space diagonalisation (order eigenvalues)
   LSUBROT=      F    optimize rotation matrix (better conditioning)
   TURBO    =      0    0=normal 1=particle mesh
   IRESTART =      0    0=no restart 2=restart with 2 vectors
   NREBOOT  =      0    no. of reboots
   NMIN     =      0    reboot dimension
   EREF     =   0.00    reference energy to select bands
   IMIX   =      4    mixing-type and parameters
     AMIX     =   0.40;   BMIX     =  1.00
     AMIX_MAG =   1.60;   BMIX_MAG =  1.00
     AMIN     =   0.10
     WC   =   100.;   INIMIX=   1;  MIXPRE=   1;  MAXMIX= -45

 Intra band minimization:
   WEIMIN = 0.0010     energy-eigenvalue tresh-hold
   EBREAK =  0.20E-08  absolut break condition
   DEPER  =   0.30     relativ break condition  

   TIME   =   0.40     timestep for ELM

  volume/ion in A,a.u.               =      34.29       231.39
  Fermi-wavevector in a.u.,A,eV,Ry     =   1.048192  1.980795 14.948798  1.098706
  Thomas-Fermi vector in A             =   2.183103

 Write flags
   LWAVE        =      F    write WAVECAR
   LDOWNSAMPLE  =      F    k-point downsampling of WAVECAR
   LCHARG       =      F    write CHGCAR
   LVTOT        =      F    write LOCPOT, total local potential
   LVHAR        =      T    write LOCPOT, Hartree potential only
   LELF         =      F    write electronic localiz. function (ELF)
   LORBIT       =     11    0 simple, 1 ext, 2 COOP (PROOUT), +10 PAW based schemes


 Dipole corrections
   LMONO  =      F    monopole corrections only (constant potential shift)
   LDIPOL =      F    correct potential (dipole corrections)
   IDIPOL =      0    1-x, 2-y, 3-z, 4-all directions 
   EPSILON=  1.0000000 bulk dielectric constant

 Exchange correlation treatment:
   GGA     =    PS    GGA type
   LEXCH   =    14    internal setting for exchange type
   LIBXC   =     F    Libxc                    
   VOSKOWN =     0    Vosko Wilk Nusair interpolation
   LHFCALC =     F    Hartree Fock is set to
   LHFONE  =     F    Hartree Fock one center treatment
   AEXX    =    0.0000 exact exchange contribution

 Linear response parameters
   LEPSILON=     F    determine dielectric tensor
   LRPA    =     F    only Hartree local field effects (RPA)
   LNABLA  =     F    use nabla operator in PAW spheres
   LVEL    =     F    velocity operator in full k-point grid
   CSHIFT  =0.1000    complex shift for real part using Kramers Kronig
   OMEGAMAX=  -1.0    maximum frequency
   DEG_THRESHOLD= 0.2000000E-02 threshold for treating states as degnerate
   RTIME   =   -0.100 relaxation time in fs
  (WPLASMAI=    0.000 imaginary part of plasma frequency in eV, 0.658/RTIME)
   DFIELD  = 0.0000000 0.0000000 0.0000000 field for delta impulse in time

  Optional k-point grid parameters
   LKPOINTS_OPT  =     F    use optional k-point grid
   KPOINTS_OPT_MODE=     1    mode for optional k-point grid

 Orbital magnetization related:
   ORBITALMAG=     F  switch on orbital magnetization
   LCHIMAG   =     F  perturbation theory with respect to B field
   DQ        =  0.001000  dq finite difference perturbation B field
   LLRAUG    =     F  two centre corrections for induced B field
   LBONE     =     F  B-component reconstruction in AE one-centre
   LVGVCALC  =     T  calculate vGv susceptibility
   LVGVAPPL  =     F  apply vGv susceptibility instead of pGv for G=0

 Random number generation:
   RANDOM_GENERATOR = DEFAULT
   PCG_SEED         = not used


--------------------------------------------------------------------------------------------------------


 conjugate gradient relaxation of ions
 charge density and potential will be updated during run
 spin polarized calculation
 Variant of blocked Davidson
 Davidson routine will perform the subspace rotation
 perform sub-space diagonalisation
    after iterative eigenvector-optimisation
 modified Broyden-mixing scheme, WC =      100.0
 initial mixing is a Kerker type mixing with AMIX =  0.4000 and BMIX =      1.0000
 Hartree-type preconditioning will be used
 using additional bands           92
 real space projection scheme for non local part
 use partial core corrections
 calculate Harris-corrections to forces   (improved forces if not selfconsistent)
 use gradient corrections 
 use of overlap-Matrix (Vanderbilt PP)
 Gauss-broadening in eV      SIGMA  =   0.20


--------------------------------------------------------------------------------------------------------


  energy-cutoff  :      300.00
  volume of cell :      274.31
      direct lattice vectors                 reciprocal lattice vectors
     6.497480470 -0.000000000  0.000000000     0.153905811 -0.000000000  0.000000000
     0.000000000  6.497480470  0.000000000     0.000000000  0.153905811  0.000000000
    -0.000000000 -0.000000000  6.497480470    -0.000000000 -0.000000000  0.153905811

  length of vectors
     6.497480470  6.497480470  6.497480470     0.153905811  0.153905811  0.153905811



 k-points in units of 2pi/SCALE and weight: K-Spacing Value to Generate K-Mesh: 0.03
   0.00000000  0.00000000  0.00000000       0.037
   0.05130194  0.00000000  0.00000000       0.222
   0.05130194  0.05130194  0.00000000       0.444
   0.05130194  0.05130194  0.05130194       0.296

 k-points in reciprocal lattice and weights: K-Spacing Value to Generate K-Mesh: 0.03
   0.00000000  0.00000000  0.00000000       0.037
   0.33333333  0.00000000  0.00000000       0.222
   0.33333333  0.33333333  0.00000000       0.444
   0.33333333  0.33333333  0.33333333       0.296

 position of ions in fractional coordinates (direct lattice) 
   0.00000000  0.00000000  0.00000000
   0.00000000  0.50000000  0.50000000
   0.50000000  0.00000000  0.50000000
   0.50000000  0.50000000  0.00000000
   0.25000000  0.25000000  0.25000000
   0.25000000  0.75000000  0.75000000
   0.75000000  0.25000000  0.75000000
   0.75000000  0.75000000  0.25000000

 position of ions in cartesian coordinates  (Angst):
   0.00000000  0.00000000  0.00000000
   0.00000000  3.24874024  3.24874024
   3.24874024  0.00000000  3.24874024
   3.24874024  3.24874024  0.00000000
   1.62437012  1.62437012  1.62437012
   1.62437012  4.87311035  4.87311035
   4.87311035  1.62437012  4.87311035
   4.87311035  4.87311035  1.62437012



--------------------------------------------------------------------------------------------------------


 k-point   1 :   0.0000 0.0000 0.0000  plane waves:    3239
 k-point   2 :   0.3333 0.0000 0.0000  plane waves:    3234
 k-point   3 :   0.3333 0.3333 0.0000  plane waves:    3227
 k-point   4 :   0.3333 0.3333 0.3333  plane waves:    3253

 maximum and minimum number of plane-waves per node :       816      802

 maximum number of plane-waves:      3253
 maximum index in each direction: 
   IXMAX=    9   IYMAX=    9   IZMAX=    9
   IXMIN=   -9   IYMIN=   -9   IZMIN=   -9


 real space projection operators:
  total allocation   :       3623.59 KBytes
  max/ min on nodes  :        916.41        885.50


 parallel 3D FFT for wavefunctions:
    minimum data exchange during FFTs selected (reduces bandwidth)
 parallel 3D FFT for charge:
    minimum data exchange during FFTs selected (reduces bandwidth)


 total amount of memory used by VASP MPI-rank0    34478. kBytes
=======================================================================

   base      :      30000. kBytes
   nonlr-proj:       1674. kBytes
   fftplans  :        796. kBytes
   grid      :       1815. kBytes
   one-center:         62. kBytes
   wavefun   :        131. kBytes

     INWAV:  cpu time      0.0001: real time      0.0003
 Broyden mixing: mesh for mixing (old mesh)
   NGX = 19   NGY = 19   NGZ = 19
  (NGX  = 80   NGY  = 80   NGZ  = 80)
  gives a total of   6859 points

 initial charge density was supplied:
 charge density of overlapping atoms calculated
 number of electron      72.0000000 magnetization       8.0000000
 keeping initial charge density in first step


--------------------------------------------------------------------------------------------------------


 Maximum index for non-local projection operator          982
 Maximum index for augmentation-charges          553 (set IRDMAX)


--------------------------------------------------------------------------------------------------------


 First call to EWALD:  gamma=   0.273
 Maximum number of real-space cells 3x 3x 3
 Maximum number of reciprocal cells 3x 3x 3

    FEWALD:  cpu time      0.0008: real time      0.0008


--------------------------------------- Ionic step        1  -------------------------------------------




--------------------------------------- Iteration      1(   1)  ---------------------------------------


    POTLOK:  cpu time      0.0963: real time      0.0995
    SETDIJ:  cpu time      0.7353: real time      0.7386
     EDDAV:  cpu time      2.0507: real time      2.0658
       DOS:  cpu time      0.0293: real time      0.0309
    --------------------------------------------
      LOOP:  cpu time      2.9116: real time      2.9347

 eigenvalue-minimisations  :  2048
 total energy-change (2. order) : 0.1098312E+03  (-0.2746801E+04)
 number of electron      72.0000000 magnetization       8.0000000
 augmentation part       72.0000000 magnetization       8.0000000

 Free energy of the ion-electron system (eV)
  ---------------------------------------------------
  alpha Z        PSCENC =       199.32241318
  Ewald energy   TEWEN  =     -4169.81853878
  -Hartree energ DENC   =     -2045.72118773
  -exchange      EXHF   =         0.00000000
  -V(xc)+E(xc)   XCENC  =       -82.03838307
  PAW double counting   =      5609.21586001    -5325.66270870
  entropy T*S    EENTRO =        -0.00536115
  eigenvalues    EBANDS =      -140.04414811
  atomic energy  EATOM  =      6064.58327761
  Solvation  Ediel_sol  =         0.00000000
  ---------------------------------------------------
  free energy    TOTEN  =       109.83122325 eV

  energy without entropy =      109.83658440  energy(sigma->0) =      109.83390383


--------------------------------------------------------------------------------------------------------




--------------------------------------- Iteration      1(   2)  ---------------------------------------


     EDDAV:  cpu time      5.4433: real time      5.4846
       DOS:  cpu time      0.0068: real time      0.0068
    --------------------------------------------
      LOOP:  cpu time      5.4501: real time      5.4914

 eigenvalue-minimisations  :  3328
 total energy-change (2. order) :-0.1310791E+03  (-0.1310652E+03)
 number of electron      72.0000000 magnetization       8.0000000
 augmentation part       72.0000000 magnetization       8.0000000

 Free energy of the ion-electron system (eV)
  ---------------------------------------------------
  alpha Z        PSCENC =       199.32241318
  Ewald energy   TEWEN  =     -4169.81853878
  -Hartree energ DENC   =     -2045.72118773
  -exchange      EXHF   =         0.00000000
  -V(xc)+E(xc)   XCENC  =       -82.03838307
  PAW double counting   =      5609.21586001    -5325.66270870
  entropy T*S    EENTRO =        -0.00229720
  eigenvalues    EBANDS =      -271.12635119
  atomic energy  EATOM  =      6064.58327761
  Solvation  Ediel_sol  =         0.00000000
  ---------------------------------------------------
  free energy    TOTEN  =       -21.24791588 eV

  energy without entropy =      -21.24561868  energy(sigma->0) =      -21.24676728


--------------------------------------------------------------------------------------------------------




--------------------------------------- Iteration      1(   3)  ---------------------------------------


     EDDAV:  cpu time      1.9487: real time      1.9712
       DOS:  cpu time      0.0063: real time      0.0064
    --------------------------------------------
      LOOP:  cpu time      1.9550: real time      1.9776

 eigenvalue-minimisations  :  2048
 total energy-change (2. order) :-0.5206899E+00  (-0.5206895E+00)
 number of electron      72.0000000 magnetization       8.0000000
 augmentation part       72.0000000 magnetization       8.0000000

 Free energy of the ion-electron system (eV)
  ---------------------------------------------------
  alpha Z        PSCENC =       199.32241318
  Ewald energy   TEWEN  =     -4169.81853878
  -Hartree energ DENC   =     -2045.72118773
  -exchange      EXHF   =         0.00000000
  -V(xc)+E(xc)   XCENC  =       -82.03838307
  PAW double counting   =      5609.21586001    -5325.66270870
  entropy T*S    EENTRO =        -0.00224634
  eigenvalues    EBANDS =      -271.64709190
  atomic energy  EATOM  =      6064.58327761
  Solvation  Ediel_sol  =         0.00000000
  ---------------------------------------------------
  free energy    TOTEN  =       -21.76860574 eV

  energy without entropy =      -21.76635939  energy(sigma->0) =      -21.76748257


--------------------------------------------------------------------------------------------------------




--------------------------------------- Iteration      1(   4)  ---------------------------------------


     EDDAV:  cpu time      8.8505: real time      8.8962
       DOS:  cpu time      0.0066: real time      0.0070
    --------------------------------------------
      LOOP:  cpu time      8.8571: real time      8.9032

 eigenvalue-minimisations  :  4096
 total energy-change (2. order) :-0.1008618E-02  (-0.1008618E-02)
 number of electron      72.0000000 magnetization       8.0000000
 augmentation part       72.0000000 magnetization       8.0000000

 Free energy of the ion-electron system (eV)
  ---------------------------------------------------
  alpha Z        PSCENC =       199.32241318
  Ewald energy   TEWEN  =     -4169.81853878
  -Hartree energ DENC   =     -2045.72118773
  -exchange      EXHF   =         0.00000000
  -V(xc)+E(xc)   XCENC  =       -82.03838307
  PAW double counting   =      5609.21586001    -5325.66270870
  entropy T*S    EENTRO =        -0.00224628
  eigenvalues    EBANDS =      -271.64810059
  atomic energy  EATOM  =      6064.58327761
  Solvation  Ediel_sol  =         0.00000000
  ---------------------------------------------------
  free energy    TOTEN  =       -21.76961435 eV

  energy without entropy =      -21.76736807  energy(sigma->0) =      -21.76849121


--------------------------------------------------------------------------------------------------------




--------------------------------------- Iteration      1(   5)  ---------------------------------------


     EDDAV:  cpu time      2.8793: real time      2.9018
       DOS:  cpu time      0.0340: real time      0.0351
    CHARGE:  cpu time      0.1288: real time      0.1332
    MIXING:  cpu time      0.0011: real time      0.0011
    --------------------------------------------
      LOOP:  cpu time      3.0432: real time      3.0712

 eigenvalue-minimisations  :  2048
 total energy-change (2. order) :-0.7180461E-08  (-0.7399656E-08)
 number of electron      72.0000110 magnetization       1.8208494
 augmentation part       17.8044021 magnetization       1.8589082

 Broyden mixing:
  rms(total) = 0.15644E+01    rms(broyden)= 0.15643E+01
  rms(prec ) = 0.17371E+01
  weight for this iteration     100.00

 Free energy of the ion-electron system (eV)
  ---------------------------------------------------
  alpha Z        PSCENC =       199.32241318
  Ewald energy   TEWEN  =     -4169.81853878
  -Hartree energ DENC   =     -2045.72118773
  -exchange      EXHF   =         0.00000000
  -V(xc)+E(xc)   XCENC  =       -82.03838307
  PAW double counting   =      5609.21586001    -5325.66270870
  entropy T*S    EENTRO =        -0.00224628
  eigenvalues    EBANDS =      -271.64810059
  atomic energy  EATOM  =      6064.58327761
  Solvation  Ediel_sol  =         0.00000000
  ---------------------------------------------------
  free energy    TOTEN  =       -21.76961436 eV

  energy without entropy =      -21.76736808  energy(sigma->0) =      -21.76849122


--------------------------------------------------------------------------------------------------------




--------------------------------------- Iteration      1(   6)  ---------------------------------------


    POTLOK:  cpu time      0.1672: real time      0.1687
    SETDIJ:  cpu time      0.7372: real time      0.7397
     EDDAV:  cpu time      3.9510: real time      3.9705
       DOS:  cpu time      0.0083: real time      0.0091
    CHARGE:  cpu time      0.0445: real time      0.0447
    MIXING:  cpu time      0.0004: real time      0.0007
    --------------------------------------------
      LOOP:  cpu time      4.9086: real time      4.9335

 eigenvalue-minimisations  :  2944
 total energy-change (2. order) : 0.1491986E-01  (-0.4474402E+00)
 number of electron      72.0000111 magnetization       0.4573235
 augmentation part       18.2056584 magnetization       0.4175481

 Broyden mixing:
  rms(total) = 0.94394E+00    rms(broyden)= 0.94393E+00
  rms(prec ) = 0.98283E+00
  weight for this iteration     100.00

 eigenvalues of (default mixing * dielectric matrix)
  average eigenvalue GAMMA=   0.8016
  0.8016

 Free energy of the ion-electron system (eV)
  ---------------------------------------------------
  alpha Z        PSCENC =       199.32241318
  Ewald energy   TEWEN  =     -4169.81853878
  -Hartree energ DENC   =     -2019.27733529
  -exchange      EXHF   =         0.00000000
  -V(xc)+E(xc)   XCENC  =       -82.98604951
  PAW double counting   =      6002.83766600    -5717.42638733
  entropy T*S    EENTRO =        -0.00140320
  eigenvalues    EBANDS =      -298.98833718
  atomic energy  EATOM  =      6064.58327761
  Solvation  Ediel_sol  =         0.00000000
  ---------------------------------------------------
  free energy    TOTEN  =       -21.75469450 eV

  energy without entropy =      -21.75329130  energy(sigma->0) =      -21.75399290


--------------------------------------------------------------------------------------------------------




--------------------------------------- Iteration      1(   7)  ---------------------------------------


    POTLOK:  cpu time      0.0949: real time      0.1031
    SETDIJ:  cpu time      0.6904: real time      0.6927
     EDDAV:  cpu time      4.7541: real time      4.7777
       DOS:  cpu time      0.0079: real time      0.0089
    CHARGE:  cpu time      0.0429: real time      0.0431
    MIXING:  cpu time      0.0003: real time      0.0003
    --------------------------------------------
      LOOP:  cpu time      5.5905: real time      5.6259

 eigenvalue-minimisations  :  3072
 total energy-change (2. order) :-0.1778894E+00  (-0.4713355E-01)
 number of electron      72.0000111 magnetization      -0.3222041
 augmentation part       18.2573383 magnetization      -0.3110491

 Broyden mixing:
  rms(total) = 0.57347E+00    rms(broyden)= 0.57347E+00
  rms(prec ) = 0.59141E+00
  weight for this iteration     100.00

 eigenvalues of (default mixing * dielectric matrix)
  average eigenvalue GAMMA=   1.0619
  1.3978  0.7260

 Free energy of the ion-electron system (eV)
  ---------------------------------------------------
  alpha Z        PSCENC =       199.32241318
  Ewald energy   TEWEN  =     -4169.81853878
  -Hartree energ DENC   =     -2016.10821872
  -exchange      EXHF   =         0.00000000
  -V(xc)+E(xc)   XCENC  =       -83.03378927
  PAW double counting   =      6290.08162544    -6004.82232038
  entropy T*S    EENTRO =        -0.00093280
  eigenvalues    EBANDS =      -302.13610018
  atomic energy  EATOM  =      6064.58327761
  Solvation  Ediel_sol  =         0.00000000
  ---------------------------------------------------
  free energy    TOTEN  =       -21.93258391 eV

  energy without entropy =      -21.93165111  energy(sigma->0) =      -21.93211751


--------------------------------------------------------------------------------------------------------




--------------------------------------- Iteration      1(   8)  ---------------------------------------


    POTLOK:  cpu time      0.1013: real time      0.1023
    SETDIJ:  cpu time      0.6892: real time      0.6926
     EDDAV:  cpu time      4.6138: real time      4.6359
       DOS:  cpu time      0.0077: real time      0.0085
    CHARGE:  cpu time      0.0440: real time      0.0442
    MIXING:  cpu time      0.0003: real time      0.0003
    --------------------------------------------
      LOOP:  cpu time      5.4562: real time      5.4839

 eigenvalue-minimisations  :  2944
 total energy-change (2. order) : 0.1577335E-02  (-0.1996305E-01)
 number of electron      72.0000110 magnetization      -0.2199586
 augmentation part       18.2757275 magnetization      -0.2165026

 Broyden mixing:
  rms(total) = 0.22333E+00    rms(broyden)= 0.22333E+00
  rms(prec ) = 0.22774E+00
  weight for this iteration     100.00

 eigenvalues of (default mixing * dielectric matrix)
  average eigenvalue GAMMA=   1.2836
  2.3854  0.8276  0.6377

 Free energy of the ion-electron system (eV)
  ---------------------------------------------------
  alpha Z        PSCENC =       199.32241318
  Ewald energy   TEWEN  =     -4169.81853878
  -Hartree energ DENC   =     -2014.38348095
  -exchange      EXHF   =         0.00000000
  -V(xc)+E(xc)   XCENC  =       -82.89343929
  PAW double counting   =      6656.92932114    -6372.12611095
  entropy T*S    EENTRO =        -0.00130305
  eigenvalues    EBANDS =      -303.54314548
  atomic energy  EATOM  =      6064.58327761
  Solvation  Ediel_sol  =         0.00000000
  ---------------------------------------------------
  free energy    TOTEN  =       -21.93100657 eV

  energy without entropy =      -21.92970353  energy(sigma->0) =      -21.93035505


--------------------------------------------------------------------------------------------------------




--------------------------------------- Iteration      1(   9)  ---------------------------------------


    POTLOK:  cpu time      0.0931: real time      0.0992
    SETDIJ:  cpu time      0.6923: real time      0.6955
     EDDAV:  cpu time      4.9731: real time      4.9970
       DOS:  cpu time      0.0080: real time      0.0089
    CHARGE:  cpu time      0.0429: real time      0.0431
    MIXING:  cpu time      0.0003: real time      0.0003
    --------------------------------------------
      LOOP:  cpu time      5.8098: real time      5.8441

 eigenvalue-minimisations  :  3072
 total energy-change (2. order) : 0.2012828E-02  (-0.8649245E-03)
 number of electron      72.0000110 magnetization      -0.0303813
 augmentation part       18.2678002 magnetization      -0.0343397

 Broyden mixing:
  rms(total) = 0.33115E-01    rms(broyden)= 0.33115E-01
  rms(prec ) = 0.38918E-01
  weight for this iteration     100.00

 eigenvalues of (default mixing * dielectric matrix)
  average eigenvalue GAMMA=   1.2282
  2.3829  1.0734  0.8260  0.6305

 Free energy of the ion-electron system (eV)
  ---------------------------------------------------
  alpha Z        PSCENC =       199.32241318
  Ewald energy   TEWEN  =     -4169.81853878
  -Hartree energ DENC   =     -2014.37949777
  -exchange      EXHF   =         0.00000000
  -V(xc)+E(xc)   XCENC  =       -82.82659379
  PAW double counting   =      6805.22016291    -6520.70598540
  entropy T*S    EENTRO =        -0.00132509
  eigenvalues    EBANDS =      -303.32290660
  atomic energy  EATOM  =      6064.58327761
  Solvation  Ediel_sol  =         0.00000000
  ---------------------------------------------------
  free energy    TOTEN  =       -21.92899374 eV

  energy without entropy =      -21.92766865  energy(sigma->0) =      -21.92833120


--------------------------------------------------------------------------------------------------------




--------------------------------------- Iteration      1(  10)  ---------------------------------------


    POTLOK:  cpu time      0.0975: real time      0.0984
    SETDIJ:  cpu time      0.6796: real time      0.6821
     EDDAV:  cpu time      3.1996: real time      3.2156
       DOS:  cpu time      0.0079: real time      0.0087
    CHARGE:  cpu time      0.0435: real time      0.0437
    MIXING:  cpu time      0.0004: real time      0.0004
    --------------------------------------------
      LOOP:  cpu time      4.0285: real time      4.0490

 eigenvalue-minimisations  :  2432
 total energy-change (2. order) :-0.5422390E-02  (-0.9845194E-03)
 number of electron      72.0000110 magnetization      -0.0019427
 augmentation part       18.2616060 magnetization      -0.0011727

 Broyden mixing:
  rms(total) = 0.12812E-01    rms(broyden)= 0.12812E-01
  rms(prec ) = 0.15402E-01
  weight for this iteration     100.00

 eigenvalues of (default mixing * dielectric matrix)
  average eigenvalue GAMMA=   1.1778
  2.3929  0.6269  0.7856  1.0418  1.0418

 Free energy of the ion-electron system (eV)
  ---------------------------------------------------
  alpha Z        PSCENC =       199.32241318
  Ewald energy   TEWEN  =     -4169.81853878
  -Hartree energ DENC   =     -2014.49023745
  -exchange      EXHF   =         0.00000000
  -V(xc)+E(xc)   XCENC  =       -82.82598082
  PAW double counting   =      6821.71060959    -6537.26224928
  entropy T*S    EENTRO =        -0.00122040
  eigenvalues    EBANDS =      -303.15248977
  atomic energy  EATOM  =      6064.58327761
  Solvation  Ediel_sol  =         0.00000000
  ---------------------------------------------------
  free energy    TOTEN  =       -21.93441613 eV

  energy without entropy =      -21.93319574  energy(sigma->0) =      -21.93380594


--------------------------------------------------------------------------------------------------------




--------------------------------------- Iteration      1(  11)  ---------------------------------------


    POTLOK:  cpu time      0.0892: real time      0.0975
    SETDIJ:  cpu time      0.6789: real time      0.6813
     EDDAV:  cpu time      6.1667: real time      6.1968
       DOS:  cpu time      0.0079: real time      0.0087
    CHARGE:  cpu time      0.0436: real time      0.0438
    MIXING:  cpu time      0.0004: real time      0.0004
    --------------------------------------------
      LOOP:  cpu time      6.9867: real time      7.0285

 eigenvalue-minimisations  :  3456
 total energy-change (2. order) :-0.2654819E-03  (-0.7032001E-04)
 number of electron      72.0000111 magnetization       0.0024415
 augmentation part       18.2609504 magnetization       0.0020315

 Broyden mixing:
  rms(total) = 0.84452E-02    rms(broyden)= 0.84451E-02
  rms(prec ) = 0.93469E-02
  weight for this iteration     100.00

 eigenvalues of (default mixing * dielectric matrix)
  average eigenvalue GAMMA=   1.1541
  2.3927  1.3792  1.1215  0.7848  0.6233  0.6233

 Free energy of the ion-electron system (eV)
  ---------------------------------------------------
  alpha Z        PSCENC =       199.32241318
  Ewald energy   TEWEN  =     -4169.81853878
  -Hartree energ DENC   =     -2014.40746878
  -exchange      EXHF   =         0.00000000
  -V(xc)+E(xc)   XCENC  =       -82.82491209
  PAW double counting   =      6831.95309068    -6547.51926846
  entropy T*S    EENTRO =        -0.00119303
  eigenvalues    EBANDS =      -303.22208193
  atomic energy  EATOM  =      6064.58327761
  Solvation  Ediel_sol  =         0.00000000
  ---------------------------------------------------
  free energy    TOTEN  =       -21.93468162 eV

  energy without entropy =      -21.93348859  energy(sigma->0) =      -21.93408510


--------------------------------------------------------------------------------------------------------




--------------------------------------- Iteration      1(  12)  ---------------------------------------


    POTLOK:  cpu time      0.0948: real time      0.0959
    SETDIJ:  cpu time      0.6676: real time      0.6706
     EDDAV:  cpu time      3.3078: real time      3.3234
       DOS:  cpu time      0.0080: real time      0.0088
    CHARGE:  cpu time      0.0426: real time      0.0428
    MIXING:  cpu time      0.0004: real time      0.0004
    --------------------------------------------
      LOOP:  cpu time      4.1212: real time      4.1419

 eigenvalue-minimisations  :  2560
 total energy-change (2. order) :-0.4738239E-04  (-0.3685413E-05)
 number of electron      72.0000111 magnetization      -0.0022612
 augmentation part       18.2607776 magnetization      -0.0023210

 Broyden mixing:
  rms(total) = 0.39077E-02    rms(broyden)= 0.39077E-02
  rms(prec ) = 0.46290E-02
  weight for this iteration     100.00

 eigenvalues of (default mixing * dielectric matrix)
  average eigenvalue GAMMA=   1.2125
  2.4385  1.5063  1.5063  0.9957  0.7835  0.6285  0.6285

 Free energy of the ion-electron system (eV)
  ---------------------------------------------------
  alpha Z        PSCENC =       199.32241318
  Ewald energy   TEWEN  =     -4169.81853878
  -Hartree energ DENC   =     -2014.40399507
  -exchange      EXHF   =         0.00000000
  -V(xc)+E(xc)   XCENC  =       -82.82307998
  PAW double counting   =      6835.39463589    -6550.96578799
  entropy T*S    EENTRO =        -0.00118384
  eigenvalues    EBANDS =      -303.22247001
  atomic energy  EATOM  =      6064.58327761
  Solvation  Ediel_sol  =         0.00000000
  ---------------------------------------------------
  free energy    TOTEN  =       -21.93472900 eV

  energy without entropy =      -21.93354516  energy(sigma->0) =      -21.93413708


--------------------------------------------------------------------------------------------------------




--------------------------------------- Iteration      1(  13)  ---------------------------------------


    POTLOK:  cpu time      0.0893: real time      0.0978
    SETDIJ:  cpu time      0.6678: real time      0.6708
     EDDAV:  cpu time      2.5213: real time      2.5336
       DOS:  cpu time      0.0074: real time      0.0083
    CHARGE:  cpu time      0.0426: real time      0.0428
    MIXING:  cpu time      0.0004: real time      0.0004
    --------------------------------------------
      LOOP:  cpu time      3.3288: real time      3.3537

 eigenvalue-minimisations  :  2304
 total energy-change (2. order) :-0.3702450E-04  (-0.3577637E-05)
 number of electron      72.0000111 magnetization      -0.0011782
 augmentation part       18.2607380 magnetization      -0.0011221

 Broyden mixing:
  rms(total) = 0.15941E-02    rms(broyden)= 0.15941E-02
  rms(prec ) = 0.18932E-02
  weight for this iteration     100.00

 eigenvalues of (default mixing * dielectric matrix)
  average eigenvalue GAMMA=   1.3124
  2.6965  2.3689  1.4324  1.0895  0.8830  0.7736  0.6275  0.6275

 Free energy of the ion-electron system (eV)
  ---------------------------------------------------
  alpha Z        PSCENC =       199.32241318
  Ewald energy   TEWEN  =     -4169.81853878
  -Hartree energ DENC   =     -2014.44704513
  -exchange      EXHF   =         0.00000000
  -V(xc)+E(xc)   XCENC  =       -82.81953251
  PAW double counting   =      6836.90761212    -6552.48113356
  entropy T*S    EENTRO =        -0.00117809
  eigenvalues    EBANDS =      -303.18064086
  atomic energy  EATOM  =      6064.58327761
  Solvation  Ediel_sol  =         0.00000000
  ---------------------------------------------------
  free energy    TOTEN  =       -21.93476602 eV

  energy without entropy =      -21.93358793  energy(sigma->0) =      -21.93417698


--------------------------------------------------------------------------------------------------------




--------------------------------------- Iteration      1(  14)  ---------------------------------------


    POTLOK:  cpu time      0.0999: real time      0.1009
    SETDIJ:  cpu time      0.8112: real time      0.8139
     EDDAV:  cpu time      4.9043: real time      4.9272
       DOS:  cpu time      0.0077: real time      0.0077
    CHARGE:  cpu time      0.0432: real time      0.0434
    MIXING:  cpu time      0.0005: real time      0.0005
    --------------------------------------------
      LOOP:  cpu time      5.8669: real time      5.8936

 eigenvalue-minimisations  :  3072
 total energy-change (2. order) :-0.8843022E-05  (-0.9342751E-06)
 number of electron      72.0000111 magnetization      -0.0001112
 augmentation part       18.2606715 magnetization      -0.0001087

 Broyden mixing:
  rms(total) = 0.42209E-03    rms(broyden)= 0.42209E-03
  rms(prec ) = 0.53457E-03
  weight for this iteration     100.00

 eigenvalues of (default mixing * dielectric matrix)
  average eigenvalue GAMMA=   1.3108
  2.7170  2.4960  1.4268  1.3093  1.0520  0.7893  0.7571  0.6249  0.6249

 Free energy of the ion-electron system (eV)
  ---------------------------------------------------
  alpha Z        PSCENC =       199.32241318
  Ewald energy   TEWEN  =     -4169.81853878
  -Hartree energ DENC   =     -2014.48894176
  -exchange      EXHF   =         0.00000000
  -V(xc)+E(xc)   XCENC  =       -82.81743553
  PAW double counting   =      6836.53391445    -6552.10747008
  entropy T*S    EENTRO =        -0.00117469
  eigenvalues    EBANDS =      -303.14081926
  atomic energy  EATOM  =      6064.58327761
  Solvation  Ediel_sol  =         0.00000000
  ---------------------------------------------------
  free energy    TOTEN  =       -21.93477487 eV

  energy without entropy =      -21.93360018  energy(sigma->0) =      -21.93418752


--------------------------------------------------------------------------------------------------------




--------------------------------------- Iteration      1(  15)  ---------------------------------------


    POTLOK:  cpu time      0.0906: real time      0.0961
    SETDIJ:  cpu time      0.6679: real time      0.6701
     EDDAV:  cpu time      4.0833: real time      4.1007
       DOS:  cpu time      0.0076: real time      0.0079
    --------------------------------------------
      LOOP:  cpu time      4.8493: real time      4.8749

 eigenvalue-minimisations  :  2816
 total energy-change (2. order) :-0.8315383E-06  (-0.8664481E-07)
 number of electron      72.0000111 magnetization      -0.0001112
 augmentation part       18.2606715 magnetization      -0.0001087

 Free energy of the ion-electron system (eV)
  ---------------------------------------------------
  alpha Z        PSCENC =       199.32241318
  Ewald energy   TEWEN  =     -4169.81853878
  -Hartree energ DENC   =     -2014.49863982
  -exchange      EXHF   =         0.00000000
  -V(xc)+E(xc)   XCENC  =       -82.81707607
  PAW double counting   =      6836.26917449    -6551.84238715
  entropy T*S    EENTRO =        -0.00117413
  eigenvalues    EBANDS =      -303.13182501
  atomic energy  EATOM  =      6064.58327761
  Solvation  Ediel_sol  =         0.00000000
  ---------------------------------------------------
  free energy    TOTEN  =       -21.93477570 eV

  energy without entropy =      -21.93360157  energy(sigma->0) =      -21.93418863


--------------------------------------------------------------------------------------------------------




 average (electrostatic) potential at core
  the test charge radii are     1.0698  1.1897
  (the norm of the test charge is              1.0000)
       1 -38.9855       2 -38.9855       3 -38.9855       4 -38.9855       5 -91.3000
       6 -91.3000       7 -91.3000       8 -91.3000



 E-fermi :   2.4951     XC(G=0):  -8.7464     alpha+bet : -7.3721

 Fermi energy:         2.4951177435

 spin component 1

 k-point     1 :       0.0000    0.0000    0.0000
  band No.  band energies     occupation 
      1      -9.0221      1.00000
      2      -8.4977      1.00000
      3      -8.4977      1.00000
      4      -8.4977      1.00000
      5      -6.0671      1.00000
      6      -6.0671      1.00000
      7      -6.0671      1.00000
      8      -5.9128      1.00000
      9      -5.9128      1.00000
     10      -5.9128      1.00000
     11      -5.9041      1.00000
     12      -5.9041      1.00000
     13      -5.9041      1.00000
     14      -5.9041      1.00000
     15      -5.9041      1.00000
     16      -5.9041      1.00000
     17      -5.8070      1.00000
     18      -5.8070      1.00000
     19      -5.7765      1.00000
     20      -5.7765      1.00000
     21      -5.7765      1.00000
     22      -5.3352      1.00000
     23      -5.3352      1.00000
     24      -5.3352      1.00000
     25      -2.1698      1.00000
     26      -2.1698      1.00000
     27      -2.1698      1.00000
     28       0.2864      1.00000
     29       0.2864      1.00000
     30       0.2864      1.00000
     31       0.2864      1.00000
     32       0.2864      1.00000
     33       0.2864      1.00000
     34       2.1493      0.99277
     35       2.1493      0.99277
     36       2.1493      0.99277
     37       2.7808      0.02170
     38       4.6523      0.00000
     39       4.6523      0.00000
     40       4.6523      0.00000
     41       4.7445      0.00000
     42       4.7445      0.00000
     43       4.7445      0.00000
     44       6.6938      0.00000
     45       6.6938      0.00000
     46       6.6938      0.00000
     47       9.4314      0.00000
     48      10.8285      0.00000
     49      10.8285      0.00000
     50      10.8285      0.00000
     51      11.1770      0.00000
     52      11.1770      0.00000
     53      11.1770      0.00000
     54      11.1770      0.00000
     55      11.1770      0.00000
     56      11.1770      0.00000
     57      11.4801      0.00000
     58      11.4801      0.00000
     59      12.1341      0.00000
     60      12.1341      0.00000
     61      12.1341      0.00000
     62      12.9512      0.00000
     63      12.9512      0.00000
     64      12.9512      0.00000
     65      13.6423      0.00000
     66      13.6423      0.00000
     67      13.6423      0.00000
     68      13.6423      0.00000
     69      13.6423      0.00000
     70      13.6423      0.00000
     71      14.0659      0.00000
     72      14.0659      0.00000
     73      14.0659      0.00000
     74      14.4376      0.00000
     75      15.8478      0.00000
     76      15.8478      0.00000
     77      15.8478      0.00000
     78      17.5269      0.00000
     79      17.5269      0.00000
     80      17.5269      0.00000
     81      17.7762      0.00000
     82      17.7762      0.00000
     83      17.7762      0.00000
     84      17.7762      0.00000
     85      17.7762      0.00000
     86      17.7762      0.00000
     87      18.1632      0.00000
     88      18.1632      0.00000
     89      18.1632      0.00000
     90      18.2486      0.00000
     91      18.2486      0.00000
     92      18.2486      0.00000
     93      19.3473      0.00000
     94      19.3473      0.00000
     95      19.3473      0.00000
     96      19.3473      0.00000
     97      19.3473      0.00000
     98      19.3473      0.00000
     99      20.6424      0.00000
    100      20.6424      0.00000
    101      20.6424      0.00000
    102      21.8320      0.00000
    103      21.8320      0.00000
    104      21.8320      0.00000
    105      22.7870      0.00000
    106      22.7870      0.00000
    107      22.7870      0.00000
    108      23.8351      0.00000
    109      23.8351      0.00000
    110      23.8351      0.00000
    111      24.3866      0.00000
    112      24.3866      0.00000
    113      24.3866      0.00000
    114      24.4726      0.00000
    115      24.4726      0.00000
    116      24.5032      0.00000
    117      24.5032      0.00000
    118      24.5032      0.00000
    119      24.5032      0.00000
    120      24.5032      0.00000
    121      24.5032      0.00000
    122      26.8628      0.00000
    123      26.8628      0.00000
    124      26.8628      0.00000
    125      27.9000      0.00000
    126      27.9000      0.00000
    127      27.9000      0.00000
    128      27.9000      0.00000

 k-point     2 :       0.3333    0.0000    0.0000
  band No.  band energies     occupation 
      1      -8.8886      1.00000
      2      -8.6243      1.00000
      3      -8.4989      1.00000
      4      -8.4989      1.00000
      5      -6.0297      1.00000
      6      -6.0297      1.00000
      7      -5.9877      1.00000
      8      -5.9484      1.00000
      9      -5.9484      1.00000
     10      -5.9367      1.00000
     11      -5.9367      1.00000
     12      -5.9354      1.00000
     13      -5.9354      1.00000
     14      -5.8991      1.00000
     15      -5.8551      1.00000
     16      -5.8551      1.00000
     17      -5.8154      1.00000
     18      -5.7994      1.00000
     19      -5.7944      1.00000
     20      -5.7944      1.00000
     21      -5.7841      1.00000
     22      -5.6259      1.00000
     23      -5.2730      1.00000
     24      -5.2730      1.00000
     25      -2.0819      1.00000
     26      -2.0819      1.00000
     27      -1.3479      1.00000
     28      -0.0673      1.00000
     29      -0.0673      1.00000
     30       0.0239      1.00000
     31       0.0239      1.00000
     32       0.3720      1.00000
     33       0.6520      1.00000
     34       0.6520      1.00000
     35       1.5435      1.00000
     36       1.5435      1.00000
     37       4.5560      0.00000
     38       4.7994      0.00000
     39       5.2125      0.00000
     40       5.7771      0.00000
     41       5.7914      0.00000
     42       5.7914      0.00000
     43       5.8421      0.00000
     44       5.8421      0.00000
     45       7.6394      0.00000
     46       7.6394      0.00000
     47       8.7408      0.00000
     48       8.7408      0.00000
     49       9.0217      0.00000
     50       9.0217      0.00000
     51       9.2426      0.00000
     52       9.3741      0.00000
     53       9.5781      0.00000
     54       9.5781      0.00000
     55      11.1951      0.00000
     56      11.6200      0.00000
     57      11.6200      0.00000
     58      11.7210      0.00000
     59      12.3885      0.00000
     60      12.8909      0.00000
     61      12.8909      0.00000
     62      13.1625      0.00000
     63      13.1625      0.00000
     64      13.3997      0.00000
     65      13.3997      0.00000
     66      13.5016      0.00000
     67      13.5213      0.00000
     68      13.5213      0.00000
     69      13.9746      0.00000
     70      15.0528      0.00000
     71      15.0528      0.00000
     72      15.2852      0.00000
     73      15.7350      0.00000
     74      15.7350      0.00000
     75      15.9130      0.00000
     76      15.9130      0.00000
     77      16.7709      0.00000
     78      16.7709      0.00000
     79      17.0501      0.00000
     80      17.1578      0.00000
     81      17.2242      0.00000
     82      17.2599      0.00000
     83      17.2599      0.00000
     84      17.2906      0.00000
     85      17.2906      0.00000
     86      17.4165      0.00000
     87      17.4165      0.00000
     88      17.5752      0.00000
     89      17.5752      0.00000
     90      19.0430      0.00000
     91      19.0430      0.00000
     92      19.5587      0.00000
     93      20.3196      0.00000
     94      20.3196      0.00000
     95      20.3975      0.00000
     96      20.4340      0.00000
     97      20.4340      0.00000
     98      21.4324      0.00000
     99      21.4324      0.00000
    100      21.5737      0.00000
    101      21.7663      0.00000
    102      21.7663      0.00000
    103      21.9964      0.00000
    104      22.1392      0.00000
    105      22.1392      0.00000
    106      22.6905      0.00000
    107      22.6905      0.00000
    108      22.8037      0.00000
    109      22.8037      0.00000
    110      22.8305      0.00000
    111      22.8305      0.00000
    112      23.2487      0.00000
    113      23.5016      0.00000
    114      23.9023      0.00000
    115      23.9023      0.00000
    116      24.3176      0.00000
    117      24.3176      0.00000
    118      24.9683      0.00000
    119      24.9683      0.00000
    120      25.1763      0.00000
    121      25.4386      0.00000
    122      25.5251      0.00000
    123      25.5251      0.00000
    124      26.6206      0.00000
    125      26.6206      0.00000
    126      26.9333      0.00000
    127      26.9333      0.00000
    128      27.1412      0.00000

 k-point     3 :       0.3333    0.3333    0.0000
  band No.  band energies     occupation 
      1      -8.7878      1.00000
      2      -8.5921      1.00000
      3      -8.5921      1.00000
      4      -8.5295      1.00000
      5      -6.0273      1.00000
      6      -6.0131      1.00000
      7      -5.9720      1.00000
      8      -5.9720      1.00000
      9      -5.9667      1.00000
     10      -5.9646      1.00000
     11      -5.9646      1.00000
     12      -5.9465      1.00000
     13      -5.8612      1.00000
     14      -5.8488      1.00000
     15      -5.8488      1.00000
     16      -5.8347      1.00000
     17      -5.8168      1.00000
     18      -5.8024      1.00000
     19      -5.7945      1.00000
     20      -5.7945      1.00000
     21      -5.7850      1.00000
     22      -5.5039      1.00000
     23      -5.5039      1.00000
     24      -5.3203      1.00000
     25      -2.0010      1.00000
     26      -1.6518      1.00000
     27      -1.6518      1.00000
     28      -0.5941      1.00000
     29      -0.4696      1.00000
     30       0.0716      1.00000
     31       0.0716      1.00000
     32       0.8279      1.00000
     33       0.8304      1.00000
     34       0.8304      1.00000
     35       0.8931      1.00000
     36       1.8011      1.00000
     37       4.7285      0.00000
     38       5.1127      0.00000
     39       5.6426      0.00000
     40       5.6426      0.00000
     41       6.2039      0.00000
     42       6.2039      0.00000
     43       6.7572      0.00000
     44       7.1847      0.00000
     45       7.2614      0.00000
     46       7.3681      0.00000
     47       7.3681      0.00000
     48       7.5695      0.00000
     49       8.9275      0.00000
     50       9.0356      0.00000
     51       9.4725      0.00000
     52       9.4725      0.00000
     53       9.5320      0.00000
     54       9.8129      0.00000
     55      10.2550      0.00000
     56      10.2550      0.00000
     57      11.0326      0.00000
     58      11.0892      0.00000
     59      11.7877      0.00000
     60      12.3312      0.00000
     61      12.3312      0.00000
     62      12.8952      0.00000
     63      13.4960      0.00000
     64      13.4960      0.00000
     65      13.6133      0.00000
     66      13.6133      0.00000
     67      14.1035      0.00000
     68      14.2214      0.00000
     69      14.3002      0.00000
     70      14.3002      0.00000
     71      14.7528      0.00000
     72      15.5913      0.00000
     73      15.8854      0.00000
     74      15.9604      0.00000
     75      15.9604      0.00000
     76      16.1494      0.00000
     77      16.2618      0.00000
     78      16.4168      0.00000
     79      16.9279      0.00000
     80      16.9279      0.00000
     81      17.3808      0.00000
     82      17.3808      0.00000
     83      17.6242      0.00000
     84      18.2252      0.00000
     85      18.3675      0.00000
     86      18.3675      0.00000
     87      19.2191      0.00000
     88      19.2560      0.00000
     89      19.3829      0.00000
     90      19.4794      0.00000
     91      19.6975      0.00000
     92      19.8289      0.00000
     93      19.8289      0.00000
     94      19.8393      0.00000
     95      20.3721      0.00000
     96      20.3721      0.00000
     97      20.4240      0.00000
     98      20.4877      0.00000
     99      20.4877      0.00000
    100      21.0428      0.00000
    101      21.4162      0.00000
    102      21.5116      0.00000
    103      21.6249      0.00000
    104      21.6249      0.00000
    105      21.9005      0.00000
    106      21.9005      0.00000
    107      22.7825      0.00000
    108      23.0939      0.00000
    109      23.1667      0.00000
    110      23.1667      0.00000
    111      23.5219      0.00000
    112      23.9388      0.00000
    113      24.1502      0.00000
    114      24.3799      0.00000
    115      24.3799      0.00000
    116      24.5086      0.00000
    117      24.6299      0.00000
    118      24.8185      0.00000
    119      24.8185      0.00000
    120      25.0623      0.00000
    121      25.3701      0.00000
    122      25.3701      0.00000
    123      25.6315      0.00000
    124      26.1733      0.00000
    125      26.2042      0.00000
    126      26.2042      0.00000
    127      26.2634      0.00000
    128      26.2779      0.00000

 k-point     4 :       0.3333    0.3333    0.3333
  band No.  band energies     occupation 
      1      -8.7200      1.00000
      2      -8.5906      1.00000
      3      -8.5906      1.00000
      4      -8.5906      1.00000
      5      -6.0166      1.00000
      6      -6.0166      1.00000
      7      -5.9902      1.00000
      8      -5.9902      1.00000
      9      -5.9902      1.00000
     10      -5.9781      1.00000
     11      -5.9781      1.00000
     12      -5.9781      1.00000
     13      -5.8235      1.00000
     14      -5.8235      1.00000
     15      -5.8235      1.00000
     16      -5.8043      1.00000
     17      -5.8043      1.00000
     18      -5.7952      1.00000
     19      -5.7952      1.00000
     20      -5.7952      1.00000
     21      -5.7137      1.00000
     22      -5.4448      1.00000
     23      -5.4448      1.00000
     24      -5.4448      1.00000
     25      -2.0774      1.00000
     26      -2.0774      1.00000
     27      -2.0774      1.00000
     28      -1.4499      1.00000
     29       0.4908      1.00000
     30       0.4908      1.00000
     31       0.4908      1.00000
     32       1.0542      1.00000
     33       1.0542      1.00000
     34       1.0542      1.00000
     35       1.5405      1.00000
     36       1.5405      1.00000
     37       3.9771      0.00000
     38       4.8416      0.00000
     39       4.8416      0.00000
     40       4.8416      0.00000
     41       6.7715      0.00000
     42       6.7715      0.00000
     43       6.7715      0.00000
     44       7.3141      0.00000
     45       7.3141      0.00000
     46       8.0256      0.00000
     47       8.0256      0.00000
     48       8.0256      0.00000
     49       8.2869      0.00000
     50       8.6300      0.00000
     51       8.6300      0.00000
     52       8.6300      0.00000
     53      10.0695      0.00000
     54      10.8470      0.00000
     55      10.8470      0.00000
     56      10.8470      0.00000
     57      10.9682      0.00000
     58      10.9682      0.00000
     59      12.0377      0.00000
     60      12.0377      0.00000
     61      12.0377      0.00000
     62      12.4806      0.00000
     63      12.4806      0.00000
     64      12.4806      0.00000
     65      13.3349      0.00000
     66      13.3349      0.00000
     67      13.3349      0.00000
     68      13.9937      0.00000
     69      13.9937      0.00000
     70      13.9937      0.00000
     71      14.2134      0.00000
     72      15.7954      0.00000
     73      15.7954      0.00000
     74      16.4389      0.00000
     75      16.5311      0.00000
     76      16.5311      0.00000
     77      16.5311      0.00000
     78      16.8890      0.00000
     79      16.8890      0.00000
     80      17.3126      0.00000
     81      17.3126      0.00000
     82      17.3126      0.00000
     83      17.8845      0.00000
     84      17.8845      0.00000
     85      17.8845      0.00000
     86      18.9963      0.00000
     87      18.9963      0.00000
     88      18.9963      0.00000
     89      19.3988      0.00000
     90      19.8557      0.00000
     91      19.8557      0.00000
     92      19.8557      0.00000
     93      20.1977      0.00000
     94      20.1977      0.00000
     95      20.1977      0.00000
     96      20.9926      0.00000
     97      20.9926      0.00000
     98      20.9926      0.00000
     99      21.9150      0.00000
    100      21.9150      0.00000
    101      21.9150      0.00000
    102      22.3891      0.00000
    103      22.7501      0.00000
    104      22.7501      0.00000
    105      22.7501      0.00000
    106      23.4151      0.00000
    107      23.4151      0.00000
    108      23.4151      0.00000
    109      23.4606      0.00000
    110      23.4606      0.00000
    111      23.5263      0.00000
    112      23.8058      0.00000
    113      23.8058      0.00000
    114      23.8058      0.00000
    115      23.8678      0.00000
    116      23.8678      0.00000
    117      24.4942      0.00000
    118      24.4942      0.00000
    119      24.5585      0.00000
    120      24.5585      0.00000
    121      24.5585      0.00000
    122      25.0186      0.00000
    123      25.0186      0.00000
    124      25.0186      0.00000
    125      25.4156      0.00000
    126      25.4156      0.00000
    127      25.4156      0.00000
    128      25.8395      0.00000
 Fermi energy:         2.4951177435

 spin component 2

 k-point     1 :       0.0000    0.0000    0.0000
  band No.  band energies     occupation 
      1      -9.0221      1.00000
      2      -8.4977      1.00000
      3      -8.4977      1.00000
      4      -8.4977      1.00000
      5      -6.0671      1.00000
      6      -6.0671      1.00000
      7      -6.0671      1.00000
      8      -5.9128      1.00000
      9      -5.9128      1.00000
     10      -5.9128      1.00000
     11      -5.9041      1.00000
     12      -5.9041      1.00000
     13      -5.9041      1.00000
[...]
     33       1.0542      1.00000
     34       1.0542      1.00000
     35       1.5405      1.00000
     36       1.5405      1.00000
     37       3.9771      0.00000
     38       4.8416      0.00000
     39       4.8416      0.00000
     40       4.8416      0.00000
     41       6.7715      0.00000
     42       6.7715      0.00000
     43       6.7715      0.00000
     44       7.3141      0.00000
     45       7.3141      0.00000
     46       8.0256      0.00000
     47       8.0256      0.00000
     48       8.0256      0.00000
     49       8.2868      0.00000
     50       8.6299      0.00000
     51       8.6299      0.00000
     52       8.6299      0.00000
     53      10.0694      0.00000
     54      10.8469      0.00000
     55      10.8469      0.00000
     56      10.8469      0.00000
     57      10.9682      0.00000
     58      10.9682      0.00000
     59      12.0377      0.00000
     60      12.0377      0.00000
     61      12.0377      0.00000
     62      12.4806      0.00000
     63      12.4806      0.00000
     64      12.4806      0.00000
     65      13.3349      0.00000
     66      13.3349      0.00000
     67      13.3349      0.00000
     68      13.9937      0.00000
     69      13.9937      0.00000
     70      13.9937      0.00000
     71      14.2134      0.00000
     72      15.7954      0.00000
     73      15.7954      0.00000
     74      16.4389      0.00000
     75      16.5310      0.00000
     76      16.5310      0.00000
     77      16.5310      0.00000
     78      16.8889      0.00000
     79      16.8889      0.00000
     80      17.3126      0.00000
     81      17.3126      0.00000
     82      17.3126      0.00000
     83      17.8844      0.00000
     84      17.8844      0.00000
     85      17.8844      0.00000
     86      18.9963      0.00000
     87      18.9963      0.00000
     88      18.9963      0.00000
     89      19.3987      0.00000
     90      19.8557      0.00000
     91      19.8557      0.00000
     92      19.8557      0.00000
     93      20.1977      0.00000
     94      20.1977      0.00000
     95      20.1977      0.00000
     96      20.9925      0.00000
     97      20.9925      0.00000
     98      20.9925      0.00000
     99      21.9150      0.00000
    100      21.9150      0.00000
    101      21.9150      0.00000
    102      22.3891      0.00000
    103      22.7500      0.00000
    104      22.7500      0.00000
    105      22.7500      0.00000
    106      23.4151      0.00000
    107      23.4151      0.00000
    108      23.4151      0.00000
    109      23.4606      0.00000
    110      23.4606      0.00000
    111      23.5263      0.00000
    112      23.8058      0.00000
    113      23.8058      0.00000
    114      23.8058      0.00000
    115      23.8677      0.00000
    116      23.8677      0.00000
    117      24.4942      0.00000
    118      24.4942      0.00000
    119      24.5584      0.00000
    120      24.5584      0.00000
    121      24.5584      0.00000
    122      25.0186      0.00000
    123      25.0186      0.00000
    124      25.0186      0.00000
    125      25.4156      0.00000
    126      25.4156      0.00000
    127      25.4156      0.00000
    128      25.8394      0.00000


--------------------------------------------------------------------------------------------------------


 soft charge-density along one line, spin component           1
         0         1         2         3         4         5         6         7         8         9
 total charge-density along one line

 soft charge-density along one line, spin component           2
         0         1         2         3         4         5         6         7         8         9
 total charge-density along one line

 pseudopotential strength for first ion, spin component:           1
-17.941   0.000  -0.000  -0.000  -0.000 -17.982   0.000  -0.000
  0.000 -17.941  -0.000   0.000   0.000   0.000 -17.982  -0.000
 -0.000  -0.000 -17.942   0.000  -0.000  -0.000  -0.000 -17.983
 -0.000   0.000   0.000 -17.941   0.000  -0.000   0.000   0.000
 -0.000   0.000  -0.000   0.000 -17.942  -0.000   0.000  -0.000
-17.982   0.000  -0.000  -0.000  -0.000 -18.003   0.000  -0.000
  0.000 -17.982  -0.000   0.000   0.000   0.000 -18.003  -0.000
 -0.000  -0.000 -17.983   0.000  -0.000  -0.000  -0.000 -18.004
 -0.000   0.000   0.000 -17.982   0.000  -0.000   0.000   0.000
 -0.000   0.000  -0.000   0.000 -17.983  -0.000   0.000  -0.000
 -0.000   0.000   0.000  -0.000   0.000  -0.000   0.000   0.000
 -0.000   0.000   0.000  -0.000   0.000  -0.000   0.000   0.000
 -0.000   0.000  -0.000  -0.002  -0.000  -0.000   0.000  -0.000
 -0.002   0.000   0.000  -0.000   0.000  -0.002   0.000   0.000
  0.000  -0.002   0.000   0.000  -0.000   0.000  -0.002   0.000
 -0.000   0.000  -0.000  -0.001  -0.000  -0.000   0.000  -0.000
 -0.001   0.000   0.000  -0.000   0.000  -0.001   0.000   0.000
  0.000  -0.001   0.000   0.000  -0.000   0.000  -0.001   0.000
 pseudopotential strength for first ion, spin component:           2
-17.941   0.000  -0.000  -0.000  -0.000 -17.982   0.000  -0.000
  0.000 -17.941  -0.000   0.000   0.000   0.000 -17.982  -0.000
 -0.000  -0.000 -17.942   0.000  -0.000  -0.000  -0.000 -17.983
 -0.000   0.000   0.000 -17.941   0.000  -0.000   0.000   0.000
 -0.000   0.000  -0.000   0.000 -17.942  -0.000   0.000  -0.000
-17.982   0.000  -0.000  -0.000  -0.000 -18.003   0.000  -0.000
  0.000 -17.982  -0.000   0.000   0.000   0.000 -18.003  -0.000
 -0.000  -0.000 -17.983   0.000  -0.000  -0.000  -0.000 -18.004
 -0.000   0.000   0.000 -17.982   0.000  -0.000   0.000   0.000
 -0.000   0.000  -0.000   0.000 -17.983  -0.000   0.000  -0.000
 -0.000   0.000   0.000  -0.000   0.000  -0.000   0.000   0.000
 -0.000   0.000   0.000  -0.000   0.000  -0.000   0.000   0.000
 -0.000   0.000  -0.000  -0.002  -0.000  -0.000   0.000  -0.000
 -0.002   0.000   0.000  -0.000   0.000  -0.002   0.000   0.000
  0.000  -0.002   0.000   0.000  -0.000   0.000  -0.002   0.000
 -0.000   0.000  -0.000  -0.001  -0.000  -0.000   0.000  -0.000
 -0.001   0.000   0.000  -0.000   0.000  -0.001   0.000   0.000
  0.000  -0.001   0.000   0.000  -0.000   0.000  -0.001   0.000
 total augmentation occupancy for first ion, spin component:           1
  4.199   0.000  -0.000   0.000   0.000  -2.054  -0.000   0.000  -0.000  -0.000   0.000   0.000   0.000  -0.516  -0.000   0.000
  0.000   4.199   0.000   0.000  -0.000  -0.000  -2.054  -0.000  -0.000   0.000  -0.000   0.000   0.000  -0.000  -0.516   0.000
 -0.000   0.000   2.698   0.000   0.000   0.000  -0.000  -0.610  -0.000   0.000  -0.000  -0.000  -0.000   0.000  -0.000   0.000
  0.000   0.000   0.000   4.199   0.000  -0.000  -0.000  -0.000  -2.054  -0.000   0.000  -0.000  -0.516  -0.000  -0.000   0.070
  0.000  -0.000   0.000   0.000   2.698  -0.000   0.000  -0.000  -0.000  -0.610   0.000  -0.000  -0.000  -0.000   0.000  -0.000
 -2.054  -0.000   0.000  -0.000  -0.000   1.899   0.000  -0.000   0.000   0.000  -0.000  -0.000   0.000   0.494  -0.000  -0.000
 -0.000  -2.054  -0.000  -0.000   0.000   0.000   1.899   0.000   0.000  -0.000   0.000   0.000   0.000   0.000   0.494  -0.000
  0.000  -0.000  -0.610  -0.000   0.000  -0.000   0.000   0.510   0.000   0.000   0.000  -0.000   0.000  -0.000   0.000  -0.000
 -0.000  -0.000  -0.000  -2.054  -0.000   0.000   0.000   0.000   1.899   0.000   0.000  -0.000   0.494   0.000   0.000  -0.082
 -0.000   0.000  -0.000  -0.000  -0.610   0.000  -0.000  -0.000   0.000   0.510  -0.000  -0.000  -0.000   0.000  -0.000   0.000
  0.000   0.000  -0.000  -0.000   0.000  -0.000   0.000   0.000   0.000   0.000   2.842  -0.712   0.000   0.000  -0.000   0.000
 -0.000  -0.000  -0.000   0.000  -0.000   0.000   0.000   0.000   0.000  -0.000  -0.712   0.218   0.000   0.000  -0.000  -0.000
  0.000  -0.000  -0.000  -0.516  -0.000   0.000  -0.000   0.000   0.494  -0.000  -0.000   0.000   0.206   0.000   0.000  -0.035
 -0.516  -0.000   0.000  -0.000  -0.000   0.494   0.000  -0.000   0.000   0.000   0.000   0.000   0.000   0.206   0.000  -0.000
 -0.000  -0.516  -0.000  -0.000  -0.000   0.000   0.494   0.000   0.000  -0.000   0.000  -0.000   0.000   0.000   0.206  -0.000
 -0.000  -0.000   0.000   0.070  -0.000   0.000  -0.000  -0.000  -0.082   0.000   0.000   0.000  -0.035  -0.000  -0.000   0.007
  0.070   0.000  -0.000   0.000   0.000  -0.082  -0.000   0.000  -0.000  -0.000   0.000  -0.000  -0.000  -0.035  -0.000   0.000
 -0.000   0.070   0.000   0.000   0.000  -0.000  -0.082  -0.000  -0.000  -0.000  -0.000   0.000  -0.000  -0.000  -0.035   0.000
 total augmentation occupancy for first ion, spin component:           2
  0.000   0.000  -0.000   0.000   0.000  -0.000  -0.000   0.000  -0.000  -0.000  -0.000   0.000   0.000  -0.000   0.000  -0.000
  0.000   0.000   0.000   0.000  -0.000  -0.000  -0.000  -0.000  -0.000   0.000   0.000  -0.000  -0.000  -0.000  -0.000   0.000
 -0.000   0.000   0.000   0.000   0.000   0.000  -0.000  -0.000  -0.000  -0.000   0.000  -0.000  -0.000   0.000  -0.000  -0.000
  0.000   0.000   0.000   0.000   0.000  -0.000  -0.000  -0.000  -0.000  -0.000  -0.000  -0.000  -0.000  -0.000  -0.000  -0.000
  0.000  -0.000   0.000   0.000   0.000  -0.000   0.000  -0.000  -0.000  -0.000   0.000   0.000  -0.000  -0.000   0.000   0.000
 -0.000  -0.000   0.000  -0.000  -0.000   0.000   0.000  -0.000   0.000   0.000   0.000   0.000   0.000   0.000  -0.000   0.000
 -0.000  -0.000  -0.000  -0.000   0.000   0.000   0.000   0.000   0.000   0.000  -0.000   0.000   0.000   0.000   0.000  -0.000
  0.000  -0.000  -0.000  -0.000  -0.000  -0.000   0.000   0.000   0.000   0.000  -0.000   0.000   0.000  -0.000   0.000   0.000
 -0.000  -0.000  -0.000  -0.000  -0.000   0.000   0.000   0.000   0.000   0.000   0.000   0.000   0.000   0.000   0.000   0.000
 -0.000   0.000  -0.000  -0.000  -0.000   0.000   0.000   0.000   0.000   0.000  -0.000  -0.000  -0.000   0.000  -0.000  -0.000
 -0.000   0.000   0.000  -0.000  -0.000   0.000  -0.000  -0.000   0.000  -0.000  -0.000   0.000   0.000  -0.000  -0.000   0.000
  0.000  -0.000  -0.000  -0.000   0.000   0.000   0.000   0.000   0.000   0.000   0.000  -0.000   0.000   0.000   0.000   0.000
  0.000  -0.000  -0.000  -0.000   0.000   0.000   0.000   0.000   0.000   0.000   0.000   0.000  -0.000  -0.000  -0.000   0.000
 -0.000  -0.000   0.000  -0.000  -0.000   0.000   0.000  -0.000   0.000   0.000  -0.000   0.000  -0.000  -0.000  -0.000   0.000
  0.000  -0.000  -0.000  -0.000   0.000  -0.000   0.000   0.000   0.000  -0.000  -0.000   0.000  -0.000  -0.000  -0.000   0.000
 -0.000   0.000  -0.000  -0.000  -0.000   0.000  -0.000   0.000   0.000  -0.000   0.000   0.000   0.000   0.000   0.000  -0.000
 -0.000  -0.000   0.000  -0.000  -0.000   0.000   0.000  -0.000   0.000   0.000   0.000  -0.000   0.000   0.000   0.000  -0.000
  0.000  -0.000  -0.000  -0.000   0.000  -0.000   0.000   0.000   0.000  -0.000   0.000   0.000   0.000   0.000   0.000  -0.000


------------------------ aborting loop because EDIFF is reached ----------------------------------------





 total charge

# of ion       s       p       d       tot
------------------------------------------
    1        0.472   0.316   9.501  10.290
    2        0.472   0.316   9.501  10.290
    3        0.472   0.316   9.501  10.290
    4        0.472   0.316   9.501  10.290
    5        1.352   2.045   0.021   3.417
    6        1.352   2.045   0.021   3.417
    7        1.352   2.045   0.021   3.417
    8        1.352   2.045   0.021   3.417
--------------------------------------------------
tot          7.295   9.443  38.090  54.828



 magnetization (x)

# of ion       s       p       d       tot
------------------------------------------
    1        0.000  -0.000   0.000   0.000
    2        0.000  -0.000   0.000   0.000
    3        0.000  -0.000   0.000   0.000
    4        0.000  -0.000   0.000   0.000
    5        0.000   0.000  -0.000   0.000
    6        0.000   0.000  -0.000   0.000
    7        0.000   0.000  -0.000   0.000
    8        0.000   0.000  -0.000   0.000
--------------------------------------------------
tot          0.000   0.000   0.000   0.000

    CHARGE:  cpu time      0.0459: real time      0.0462
    FORLOC:  cpu time      0.0001: real time      0.0001
    FORNL :  cpu time      0.0240: real time      0.0241
    STRESS:  cpu time      0.0618: real time      0.0624
    FORCOR:  cpu time      0.0600: real time      0.0602
    FORHAR:  cpu time      0.0074: real time      0.0075
    MIXING:  cpu time      0.0006: real time      0.0006
    OFIELD:  cpu time      0.0000: real time      0.0000

  FORCE on cell =-STRESS in cart. coord.  units (eV):
  Direction    XX          YY          ZZ          XY          YZ          ZX
  --------------------------------------------------------------------------------------
  Alpha Z   199.32241   199.32241   199.32241
  Ewald   -1389.94158 -1389.94158 -1389.94158    -0.00000    -0.00000     0.00000
  Hartree   671.50368   671.50368   671.50368    -0.00000    -0.00000    -0.00000
  E(xc)    -344.97666  -344.97666  -344.97666    -0.00000     0.00000    -0.00000
  Local     -74.37185   -74.37185   -74.37185    -0.00000    -0.00000     0.00000
  n-local   103.03282   106.57432   103.55318    -4.14667    -1.67872    -1.67872
  augment    24.79972    24.79972    24.79972    -0.00000     0.00000     0.00000
  Kinetic   806.27013   811.01309   810.63994    -3.96055    -1.76578    -1.76578
  Fock        0.00000     0.00000     0.00000     0.00000     0.00000     0.00000
  -------------------------------------------------------------------------------------
  Total       0.03021     0.03021     0.03021     0.00000     0.00000     0.00000
  in kB       0.17648     0.17648     0.17648     0.00000     0.00000     0.00000
  external pressure =        0.18 kB  Pullay stress =        0.00 kB


 VOLUME and BASIS-vectors are now :
 -----------------------------------------------------------------------------
  energy-cutoff  :      300.00
  volume of cell :      274.31
      direct lattice vectors                 reciprocal lattice vectors
     6.497480470 -0.000000000  0.000000000     0.153905811 -0.000000000  0.000000000
     0.000000000  6.497480470  0.000000000     0.000000000  0.153905811  0.000000000
    -0.000000000 -0.000000000  6.497480470    -0.000000000 -0.000000000  0.153905811

  length of vectors
     6.497480470  6.497480470  6.497480470     0.153905811  0.153905811  0.153905811


 FORCES acting on ions
    electron-ion (+dipol)            ewald-force                    non-local-force                 convergence-correction
 -----------------------------------------------------------------------------------------------
   0.120E-13 0.235E-13 -.870E-13   -.355E-13 0.142E-13 0.213E-13   0.238E-17 -.272E-17 -.292E-17   -.983E-13 -.157E-12 -.524E-13
   0.336E-13 -.908E-13 -.152E-12   -.355E-13 0.284E-13 0.213E-13   0.276E-17 -.390E-17 -.489E-17   -.911E-13 0.679E-13 0.153E-12
   -.884E-13 0.227E-13 -.354E-11   -.213E-13 0.142E-13 0.213E-13   0.195E-17 -.269E-17 0.387E-17   0.943E-13 -.169E-12 0.167E-12
   -.540E-13 -.681E-13 -.415E-11   -.213E-13 0.284E-13 0.213E-13   0.283E-17 -.179E-16 -.479E-17   0.957E-13 0.659E-13 -.469E-13
   0.699E-13 0.136E-12 0.818E-14   0.338E-13 -.226E-13 -.222E-13   0.998E-17 -.243E-16 0.539E-17   -.711E-14 -.135E-13 -.507E-13
   0.110E-12 0.273E-12 0.293E-13   0.339E-13 -.199E-13 -.210E-13   -.245E-16 -.382E-16 -.965E-17   -.387E-14 0.742E-13 0.159E-13
   0.107E-12 -.126E-11 0.309E-12   0.229E-13 -.227E-13 -.206E-13   -.433E-17 0.169E-17 0.382E-17   0.189E-13 -.182E-13 0.200E-13
   0.141E-12 -.371E-13 -.102E-11   0.230E-13 -.200E-13 -.215E-13   0.642E-17 0.154E-16 0.148E-16   0.200E-13 0.709E-13 -.530E-13
 -----------------------------------------------------------------------------------------------
   0.332E-12 -.997E-12 -.860E-11   -.117E-15 0.716E-16 -.299E-16   -.248E-17 -.727E-16 0.566E-17   0.285E-13 -.792E-13 0.152E-12


 POSITION                                       TOTAL-FORCE (eV/Angst)
 -----------------------------------------------------------------------------------
      0.00000      0.00000      0.00000         0.000000     -0.000000      0.000000
      0.00000      3.24874      3.24874         0.000000      0.000000      0.000000
      3.24874      0.00000      3.24874         0.000000     -0.000000      0.000000
      3.24874      3.24874      0.00000         0.000000     -0.000000      0.000000
      1.62437      1.62437      1.62437        -0.000000      0.000000     -0.000000
      1.62437      4.87311      4.87311        -0.000000      0.000000     -0.000000
      4.87311      1.62437      4.87311        -0.000000      0.000000     -0.000000
      4.87311      4.87311      1.62437        -0.000000      0.000000     -0.000000
 -----------------------------------------------------------------------------------
    total drift:                                0.000000     -0.000000     -0.000000


--------------------------------------------------------------------------------------------------------



  FREE ENERGIE OF THE ION-ELECTRON SYSTEM (eV)
  ---------------------------------------------------
  free  energy   TOTEN  =       -21.93477570 eV

  energy  without entropy=      -21.93360157  energy(sigma->0) =      -21.93418863



--------------------------------------------------------------------------------------------------------


    POTLOK:  cpu time      0.7937: real time      0.7962


--------------------------------------------------------------------------------------------------------




--------------------------------------------------------------------------------------------------------


  
 reached required accuracy - stopping structural energy minimisation
     LOOP+:  cpu time     74.8438: real time     75.3077
    4ORBIT:  cpu time      0.0000: real time      0.0000



 total charge

# of ion       s       p       d       tot
------------------------------------------
    1        0.472   0.316   9.501  10.290
    2        0.472   0.316   9.501  10.290
    3        0.472   0.316   9.501  10.290
    4        0.472   0.316   9.501  10.290
    5        1.352   2.045   0.021   3.417
    6        1.352   2.045   0.021   3.417
    7        1.352   2.045   0.021   3.417
    8        1.352   2.045   0.021   3.417
--------------------------------------------------
tot          7.295   9.443  38.090  54.828



 magnetization (x)

# of ion       s       p       d       tot
------------------------------------------
    1        0.000  -0.000   0.000   0.000
    2        0.000  -0.000   0.000   0.000
    3        0.000  -0.000   0.000   0.000
    4        0.000  -0.000   0.000   0.000
    5        0.000   0.000  -0.000   0.000
    6        0.000   0.000  -0.000   0.000
    7        0.000   0.000  -0.000   0.000
    8        0.000   0.000  -0.000   0.000
--------------------------------------------------
tot          0.000   0.000   0.000   0.000


 total amount of memory used by VASP MPI-rank0    34478. kBytes
=======================================================================

   base      :      30000. kBytes
   nonlr-proj:       1674. kBytes
   fftplans  :        796. kBytes
   grid      :       1815. kBytes
   one-center:         62. kBytes
   wavefun   :        131. kBytes

  
  
 General timing and accounting informations for this job:
 ========================================================
  
                  Total CPU time used (sec):       78.862
                            User time (sec):       78.325
                          System time (sec):        0.537
                         Elapsed time (sec):       80.442
  
                   Maximum memory used (kb):      213332.
                   Average memory used (kb):          N/A
  
                          Minor page faults:        84401
                          Major page faults:          404
                 Voluntary context switches:         5803
